<?xml version="1.0" encoding="UTF-8"?>

<!-- generated on 2025-06-30 15:05:34 by Eclipse SUMO GUI Version 1.22.0
<sumoConfiguration xmlns:xsi="http://www.w3.org/2001/XMLSchema-instance" xsi:noNamespaceSchemaLocation="http://sumo.dlr.de/xsd/sumoConfiguration.xsd">

    <input>
        <net-file value="/home/naderian/Desktop/Shakiba/MMSVCC/environment/network_model/single_intersection_Concurrent_(delayed_turn).net.xml"/>
        <route-files value="/home/naderian/Desktop/Shakiba/MMSVCC/environment/network_model/single_intersection.rou.xml"/>
        <additional-files value="/home/naderian/Desktop/Shakiba/MMSVCC/environment/network_model/single_intersection.add_actuated_(delayed_turn).xml"/>
    </input>

    <output>
        <queue-output value="/home/naderian/Desktop/Shakiba/MMSVCC/environment/simulation_data/single_intersection/queues_actuated_symmetric_pene_100.xml"/>
        <tripinfo-output value="/home/naderian/Desktop/Shakiba/MMSVCC/environment/simulation_data/single_intersection/tripinfo_actuated_symmetric_pene_100.xml"/>
    </output>

    <time>
        <begin value="0"/>
        <step-length value="0.5"/>
    </time>

    <processing>
        <waiting-time-memory value="1000"/>
    </processing>

    <report>
        <verbose value="true"/>
        <no-step-log value="true"/>
    </report>

    <ssm_device>
        <device.ssm.file value="/home/naderian/Desktop/Shakiba/MMSVCC/environment/simulation_data/single_intersection/SSMinfo_actuated_pene_100.xml"/>
    </ssm_device>

    <traci_server>
        <remote-port value="58613"/>
    </traci_server>

    <gui_only>
        <start value="true"/>
    </gui_only>

</sumoConfiguration>
-->

<detector xmlns:xsi="http://www.w3.org/2001/XMLSchema-instance" xsi:noNamespaceSchemaLocation="http://sumo.dlr.de/xsd/det_e1_file.xsd">
    <interval begin="0.00" end="300.00" id="1_actuated_program_D0.0" nVehContrib="5" flow="60.00" occupancy="0.67" speed="12.37" harmonicMeanSpeed="12.35" length="5.00" nVehEntered="5"/>
    <interval begin="0.00" end="300.00" id="1_actuated_program_D0.1" nVehContrib="37" flow="444.00" occupancy="24.81" speed="9.21" harmonicMeanSpeed="2.49" length="5.00" nVehEntered="37"/>
    <interval begin="0.00" end="300.00" id="1_actuated_program_D0.2" nVehContrib="6" flow="72.00" occupancy="0.87" speed="11.66" harmonicMeanSpeed="11.47" length="5.00" nVehEntered="6"/>
    <interval begin="0.00" end="300.00" id="1_actuated_program_D1.0" nVehContrib="7" flow="84.00" occupancy="0.96" speed="12.16" harmonicMeanSpeed="12.14" length="5.00" nVehEntered="7"/>
    <interval begin="0.00" end="300.00" id="1_actuated_program_D1.1" nVehContrib="27" flow="324.00" occupancy="36.85" speed="8.13" harmonicMeanSpeed="1.23" length="5.00" nVehEntered="28"/>
    <interval begin="0.00" end="300.00" id="1_actuated_program_D1.2" nVehContrib="6" flow="72.00" occupancy="0.81" speed="12.37" harmonicMeanSpeed="12.37" length="5.00" nVehEntered="6"/>
    <interval begin="0.00" end="300.00" id="1_actuated_program_D2.0" nVehContrib="10" flow="120.00" occupancy="1.36" speed="12.27" harmonicMeanSpeed="12.26" length="5.00" nVehEntered="10"/>
    <interval begin="0.00" end="300.00" id="1_actuated_program_D2.1" nVehContrib="33" flow="396.00" occupancy="23.53" speed="8.75" harmonicMeanSpeed="2.34" length="5.00" nVehEntered="33"/>
    <interval begin="0.00" end="300.00" id="1_actuated_program_D2.2" nVehContrib="6" flow="72.00" occupancy="0.83" speed="12.10" harmonicMeanSpeed="12.08" length="5.00" nVehEntered="6"/>
    <interval begin="0.00" end="300.00" id="1_actuated_program_D3.0" nVehContrib="7" flow="84.00" occupancy="0.96" speed="12.17" harmonicMeanSpeed="12.17" length="5.00" nVehEntered="7"/>
    <interval begin="0.00" end="300.00" id="1_actuated_program_D3.1" nVehContrib="30" flow="360.00" occupancy="35.56" speed="8.39" harmonicMeanSpeed="1.41" length="5.00" nVehEntered="30"/>
    <interval begin="0.00" end="300.00" id="1_actuated_program_D3.2" nVehContrib="6" flow="72.00" occupancy="0.84" speed="11.94" harmonicMeanSpeed="11.93" length="5.00" nVehEntered="6"/>
    <interval begin="300.00" end="600.00" id="1_actuated_program_D0.0" nVehContrib="12" flow="144.00" occupancy="3.70" speed="9.76" harmonicMeanSpeed="5.41" length="5.00" nVehEntered="12"/>
    <interval begin="300.00" end="600.00" id="1_actuated_program_D0.1" nVehContrib="33" flow="396.00" occupancy="60.38" speed="7.81" harmonicMeanSpeed="0.91" length="5.00" nVehEntered="33"/>
    <interval begin="300.00" end="600.00" id="1_actuated_program_D0.2" nVehContrib="8" flow="96.00" occupancy="1.13" speed="11.89" harmonicMeanSpeed="11.83" length="5.00" nVehEntered="8"/>
    <interval begin="300.00" end="600.00" id="1_actuated_program_D1.0" nVehContrib="5" flow="60.00" occupancy="0.69" speed="12.00" harmonicMeanSpeed="12.00" length="5.00" nVehEntered="5"/>
    <interval begin="300.00" end="600.00" id="1_actuated_program_D1.1" nVehContrib="34" flow="408.00" occupancy="35.01" speed="9.04" harmonicMeanSpeed="1.61" length="5.00" nVehEntered="33"/>
    <interval begin="300.00" end="600.00" id="1_actuated_program_D1.2" nVehContrib="2" flow="24.00" occupancy="0.27" speed="12.36" harmonicMeanSpeed="12.35" length="5.00" nVehEntered="2"/>
    <interval begin="300.00" end="600.00" id="1_actuated_program_D2.0" nVehContrib="9" flow="108.00" occupancy="1.50" speed="10.82" harmonicMeanSpeed="10.02" length="5.00" nVehEntered="9"/>
    <interval begin="300.00" end="600.00" id="1_actuated_program_D2.1" nVehContrib="27" flow="324.00" occupancy="47.21" speed="7.92" harmonicMeanSpeed="0.95" length="5.00" nVehEntered="28"/>
    <interval begin="300.00" end="600.00" id="1_actuated_program_D2.2" nVehContrib="5" flow="60.00" occupancy="0.73" speed="11.52" harmonicMeanSpeed="11.39" length="5.00" nVehEntered="5"/>
    <interval begin="300.00" end="600.00" id="1_actuated_program_D3.0" nVehContrib="8" flow="96.00" occupancy="1.10" speed="12.17" harmonicMeanSpeed="12.16" length="5.00" nVehEntered="8"/>
    <interval begin="300.00" end="600.00" id="1_actuated_program_D3.1" nVehContrib="47" flow="564.00" occupancy="43.26" speed="9.51" harmonicMeanSpeed="1.81" length="5.00" nVehEntered="47"/>
    <interval begin="300.00" end="600.00" id="1_actuated_program_D3.2" nVehContrib="4" flow="48.00" occupancy="0.53" speed="12.51" harmonicMeanSpeed="12.49" length="5.00" nVehEntered="4"/>
    <interval begin="600.00" end="900.00" id="1_actuated_program_D0.0" nVehContrib="8" flow="96.00" occupancy="1.08" speed="12.31" harmonicMeanSpeed="12.30" length="5.00" nVehEntered="8"/>
    <interval begin="600.00" end="900.00" id="1_actuated_program_D0.1" nVehContrib="44" flow="528.00" occupancy="55.97" speed="9.79" harmonicMeanSpeed="2.27" length="5.00" nVehEntered="45"/>
    <interval begin="600.00" end="900.00" id="1_actuated_program_D0.2" nVehContrib="9" flow="108.00" occupancy="1.50" speed="10.58" harmonicMeanSpeed="9.97" length="5.00" nVehEntered="9"/>
    <interval begin="600.00" end="900.00" id="1_actuated_program_D1.0" nVehContrib="13" flow="156.00" occupancy="5.86" speed="9.51" harmonicMeanSpeed="3.70" length="5.00" nVehEntered="13"/>
    <interval begin="600.00" end="900.00" id="1_actuated_program_D1.1" nVehContrib="51" flow="612.00" occupancy="54.06" speed="9.19" harmonicMeanSpeed="1.57" length="5.00" nVehEntered="51"/>
    <interval begin="600.00" end="900.00" id="1_actuated_program_D1.2" nVehContrib="9" flow="108.00" occupancy="6.64" speed="9.56" harmonicMeanSpeed="2.26" length="5.00" nVehEntered="9"/>
    <interval begin="600.00" end="900.00" id="1_actuated_program_D2.0" nVehContrib="6" flow="72.00" occupancy="0.79" speed="12.59" harmonicMeanSpeed="12.58" length="5.00" nVehEntered="6"/>
    <interval begin="600.00" end="900.00" id="1_actuated_program_D2.1" nVehContrib="50" flow="600.00" occupancy="57.99" speed="9.87" harmonicMeanSpeed="2.56" length="5.00" nVehEntered="50"/>
    <interval begin="600.00" end="900.00" id="1_actuated_program_D2.2" nVehContrib="9" flow="108.00" occupancy="1.43" speed="11.03" harmonicMeanSpeed="10.46" length="5.00" nVehEntered="9"/>
    <interval begin="600.00" end="900.00" id="1_actuated_program_D3.0" nVehContrib="13" flow="156.00" occupancy="1.89" speed="11.72" harmonicMeanSpeed="11.46" length="5.00" nVehEntered="13"/>
    <interval begin="600.00" end="900.00" id="1_actuated_program_D3.1" nVehContrib="49" flow="588.00" occupancy="50.44" speed="9.54" harmonicMeanSpeed="1.71" length="5.00" nVehEntered="50"/>
    <interval begin="600.00" end="900.00" id="1_actuated_program_D3.2" nVehContrib="8" flow="96.00" occupancy="1.29" speed="10.85" harmonicMeanSpeed="10.30" length="5.00" nVehEntered="8"/>
    <interval begin="900.00" end="1200.00" id="1_actuated_program_D0.0" nVehContrib="1" flow="12.00" occupancy="0.14" speed="11.71" harmonicMeanSpeed="11.71" length="5.00" nVehEntered="1"/>
    <interval begin="900.00" end="1200.00" id="1_actuated_program_D0.1" nVehContrib="13" flow="156.00" occupancy="3.87" speed="8.03" harmonicMeanSpeed="0.79" length="5.00" nVehEntered="12"/>
    <interval begin="900.00" end="1200.00" id="1_actuated_program_D0.2" nVehContrib="0" flow="0.00" occupancy="0.00" speed="-1.00" harmonicMeanSpeed="-1.00" length="-1.00" nVehEntered="0"/>
    <interval begin="900.00" end="1200.00" id="1_actuated_program_D1.0" nVehContrib="1" flow="12.00" occupancy="0.13" speed="12.36" harmonicMeanSpeed="12.36" length="5.00" nVehEntered="1"/>
    <interval begin="900.00" end="1200.00" id="1_actuated_program_D1.1" nVehContrib="3" flow="36.00" occupancy="24.86" speed="2.31" harmonicMeanSpeed="0.20" length="5.00" nVehEntered="3"/>
    <interval begin="900.00" end="1200.00" id="1_actuated_program_D1.2" nVehContrib="0" flow="0.00" occupancy="0.00" speed="-1.00" harmonicMeanSpeed="-1.00" length="-1.00" nVehEntered="0"/>
    <interval begin="900.00" end="1200.00" id="1_actuated_program_D2.0" nVehContrib="1" flow="12.00" occupancy="0.14" speed="12.12" harmonicMeanSpeed="12.12" length="5.00" nVehEntered="1"/>
    <interval begin="900.00" end="1200.00" id="1_actuated_program_D2.1" nVehContrib="18" flow="216.00" occupancy="4.87" speed="8.96" harmonicMeanSpeed="0.99" length="5.00" nVehEntered="17"/>
    <interval begin="900.00" end="1200.00" id="1_actuated_program_D2.2" nVehContrib="0" flow="0.00" occupancy="0.00" speed="-1.00" harmonicMeanSpeed="-1.00" length="-1.00" nVehEntered="0"/>
    <interval begin="900.00" end="1200.00" id="1_actuated_program_D3.0" nVehContrib="1" flow="12.00" occupancy="0.13" speed="12.56" harmonicMeanSpeed="12.56" length="5.00" nVehEntered="1"/>
    <interval begin="900.00" end="1200.00" id="1_actuated_program_D3.1" nVehContrib="4" flow="48.00" occupancy="26.56" speed="2.90" harmonicMeanSpeed="0.23" length="5.00" nVehEntered="3"/>
    <interval begin="900.00" end="1200.00" id="1_actuated_program_D3.2" nVehContrib="1" flow="12.00" occupancy="0.14" speed="11.98" harmonicMeanSpeed="11.98" length="5.00" nVehEntered="1"/>
    <interval begin="1200.00" end="1398.50" id="1_actuated_program_D0.0" nVehContrib="0" flow="0.00" occupancy="0.00" speed="-1.00" harmonicMeanSpeed="-1.00" length="-1.00" nVehEntered="0"/>
    <interval begin="1200.00" end="1398.50" id="1_actuated_program_D0.1" nVehContrib="0" flow="0.00" occupancy="0.00" speed="-1.00" harmonicMeanSpeed="-1.00" length="-1.00" nVehEntered="0"/>
    <interval begin="1200.00" end="1398.50" id="1_actuated_program_D0.2" nVehContrib="0" flow="0.00" occupancy="0.00" speed="-1.00" harmonicMeanSpeed="-1.00" length="-1.00" nVehEntered="0"/>
    <interval begin="1200.00" end="1398.50" id="1_actuated_program_D1.0" nVehContrib="0" flow="0.00" occupancy="0.00" speed="-1.00" harmonicMeanSpeed="-1.00" length="-1.00" nVehEntered="0"/>
    <interval begin="1200.00" end="1398.50" id="1_actuated_program_D1.1" nVehContrib="0" flow="0.00" occupancy="0.00" speed="-1.00" harmonicMeanSpeed="-1.00" length="-1.00" nVehEntered="0"/>
    <interval begin="1200.00" end="1398.50" id="1_actuated_program_D1.2" nVehContrib="0" flow="0.00" occupancy="0.00" speed="-1.00" harmonicMeanSpeed="-1.00" length="-1.00" nVehEntered="0"/>
    <interval begin="1200.00" end="1398.50" id="1_actuated_program_D2.0" nVehContrib="0" flow="0.00" occupancy="0.00" speed="-1.00" harmonicMeanSpeed="-1.00" length="-1.00" nVehEntered="0"/>
    <interval begin="1200.00" end="1398.50" id="1_actuated_program_D2.1" nVehContrib="0" flow="0.00" occupancy="0.00" speed="-1.00" harmonicMeanSpeed="-1.00" length="-1.00" nVehEntered="0"/>
    <interval begin="1200.00" end="1398.50" id="1_actuated_program_D2.2" nVehContrib="0" flow="0.00" occupancy="0.00" speed="-1.00" harmonicMeanSpeed="-1.00" length="-1.00" nVehEntered="0"/>
    <interval begin="1200.00" end="1398.50" id="1_actuated_program_D3.0" nVehContrib="0" flow="0.00" occupancy="0.00" speed="-1.00" harmonicMeanSpeed="-1.00" length="-1.00" nVehEntered="0"/>
    <interval begin="1200.00" end="1398.50" id="1_actuated_program_D3.1" nVehContrib="0" flow="0.00" occupancy="0.00" speed="-1.00" harmonicMeanSpeed="-1.00" length="-1.00" nVehEntered="0"/>
    <interval begin="1200.00" end="1398.50" id="1_actuated_program_D3.2" nVehContrib="0" flow="0.00" occupancy="0.00" speed="-1.00" harmonicMeanSpeed="-1.00" length="-1.00" nVehEntered="0"/>
</detector>
