<?xml version="1.0" encoding="UTF-8"?>

<!-- generated on 2025-03-14 13:28:57 by Eclipse SUMO GUI Version 1.20.0
<configuration xmlns:xsi="http://www.w3.org/2001/XMLSchema-instance" xsi:noNamespaceSchemaLocation="http://sumo.dlr.de/xsd/sumoConfiguration.xsd">

    <input>
        <net-file value="/home/naderian/Desktop/Shakiba/MMSVCC/environment/network_model/single_intersection_pedestrian_X.net.xml"/>
        <route-files value="/home/naderian/Desktop/Shakiba/MMSVCC/environment/network_model/single_intersection.rou.xml"/>
        <additional-files value="/home/naderian/Desktop/Shakiba/MMSVCC/environment/network_model/single_intersection.add_actuated.xml"/>
    </input>

    <output>
        <queue-output value="/home/naderian/Desktop/Shakiba/MMSVCC/environment/simulation_data/single_intersection/queues_actuated_symmetric_pene_100.xml"/>
        <tripinfo-output value="/home/naderian/Desktop/Shakiba/MMSVCC/environment/simulation_data/single_intersection/tripinfo_actuated_symmetric_pene_100.xml"/>
    </output>

    <time>
        <begin value="0"/>
        <step-length value="0.5"/>
    </time>

    <processing>
        <waiting-time-memory value="1000"/>
    </processing>

    <report>
        <verbose value="true"/>
        <no-step-log value="true"/>
    </report>

    <traci_server>
        <remote-port value="60953"/>
    </traci_server>

    <gui_only>
        <start value="true"/>
    </gui_only>

</configuration>
-->

<detector xmlns:xsi="http://www.w3.org/2001/XMLSchema-instance" xsi:noNamespaceSchemaLocation="http://sumo.dlr.de/xsd/det_e1_file.xsd">
    <interval begin="0.00" end="124.00" id="1_actuated_program_D0.0" nVehContrib="14" flow="406.45" occupancy="4.86" speed="12.25" harmonicMeanSpeed="12.23" length="5.00" nVehEntered="15"/>
    <interval begin="0.00" end="124.00" id="1_actuated_program_D0.1" nVehContrib="1" flow="29.03" occupancy="0.54" speed="7.42" harmonicMeanSpeed="7.42" length="5.00" nVehEntered="1"/>
    <interval begin="0.00" end="124.00" id="1_actuated_program_D0.2" nVehContrib="0" flow="0.00" occupancy="0.00" speed="-1.00" harmonicMeanSpeed="-1.00" length="-1.00" nVehEntered="0"/>
    <interval begin="0.00" end="124.00" id="1_actuated_program_D1.0" nVehContrib="3" flow="87.10" occupancy="1.00" speed="12.06" harmonicMeanSpeed="12.05" length="5.00" nVehEntered="3"/>
    <interval begin="0.00" end="124.00" id="1_actuated_program_D1.1" nVehContrib="5" flow="145.16" occupancy="1.87" speed="11.25" harmonicMeanSpeed="10.81" length="5.00" nVehEntered="5"/>
    <interval begin="0.00" end="124.00" id="1_actuated_program_D1.2" nVehContrib="1" flow="29.03" occupancy="0.32" speed="12.56" harmonicMeanSpeed="12.56" length="5.00" nVehEntered="1"/>
    <interval begin="0.00" end="124.00" id="1_actuated_program_D2.0" nVehContrib="13" flow="377.42" occupancy="4.38" speed="12.06" harmonicMeanSpeed="11.97" length="5.00" nVehEntered="14"/>
    <interval begin="0.00" end="124.00" id="1_actuated_program_D2.1" nVehContrib="5" flow="145.16" occupancy="2.21" speed="10.15" harmonicMeanSpeed="9.13" length="5.00" nVehEntered="5"/>
    <interval begin="0.00" end="124.00" id="1_actuated_program_D2.2" nVehContrib="0" flow="0.00" occupancy="0.00" speed="-1.00" harmonicMeanSpeed="-1.00" length="-1.00" nVehEntered="0"/>
    <interval begin="0.00" end="124.00" id="1_actuated_program_D3.0" nVehContrib="8" flow="232.26" occupancy="3.16" speed="11.77" harmonicMeanSpeed="11.63" length="5.00" nVehEntered="9"/>
    <interval begin="0.00" end="124.00" id="1_actuated_program_D3.1" nVehContrib="4" flow="116.13" occupancy="1.52" speed="10.79" harmonicMeanSpeed="10.63" length="5.00" nVehEntered="4"/>
    <interval begin="0.00" end="124.00" id="1_actuated_program_D3.2" nVehContrib="2" flow="58.06" occupancy="0.68" speed="11.94" harmonicMeanSpeed="11.93" length="5.00" nVehEntered="2"/>
</detector>
