<?xml version="1.0" encoding="UTF-8"?>

<!-- generated on 2025-07-10 16:57:59 by Eclipse SUMO GUI Version 1.22.0
<sumoConfiguration xmlns:xsi="http://www.w3.org/2001/XMLSchema-instance" xsi:noNamespaceSchemaLocation="http://sumo.dlr.de/xsd/sumoConfiguration.xsd">

    <input>
        <net-file value="/home/naderian/Desktop/Shakiba/MMSVCC/environment/network_model/single_intersection_bike_Concurrent_(permitted_right).net.xml"/>
        <route-files value="/home/naderian/Desktop/Shakiba/MMSVCC/environment/network_model/single_intersection.rou.xml"/>
        <additional-files value="/home/naderian/Desktop/Shakiba/MMSVCC/environment/network_model/single_intersection.add_actuated_(permitted_right).xml"/>
    </input>

    <output>
        <queue-output value="/home/naderian/Desktop/Shakiba/MMSVCC/environment/simulation_data/single_intersection/queues_actuated_asymmetric_pene_100.xml"/>
        <tripinfo-output value="/home/naderian/Desktop/Shakiba/MMSVCC/environment/simulation_data/single_intersection/tripinfo_actuated_asymmetric_pene_100.xml"/>
    </output>

    <time>
        <begin value="0"/>
        <step-length value="0.5"/>
    </time>

    <processing>
        <waiting-time-memory value="1000"/>
    </processing>

    <report>
        <verbose value="true"/>
        <no-step-log value="true"/>
    </report>

    <ssm_device>
        <device.ssm.file value="/home/naderian/Desktop/Shakiba/MMSVCC/environment/simulation_data/single_intersection/SSMinfo_actuated_pene_100.xml"/>
    </ssm_device>

    <traci_server>
        <remote-port value="34865"/>
    </traci_server>

    <gui_only>
        <start value="true"/>
    </gui_only>

</sumoConfiguration>
-->

<detector xmlns:xsi="http://www.w3.org/2001/XMLSchema-instance" xsi:noNamespaceSchemaLocation="http://sumo.dlr.de/xsd/det_e1_file.xsd">
    <interval begin="0.00" end="300.00" id="1_actuated_program_D0.0" nVehContrib="4" flow="48.00" occupancy="0.42" speed="5.09" harmonicMeanSpeed="5.06" length="1.60" nVehEntered="4"/>
    <interval begin="0.00" end="300.00" id="1_actuated_program_D1.0" nVehContrib="0" flow="0.00" occupancy="0.00" speed="-1.00" harmonicMeanSpeed="-1.00" length="-1.00" nVehEntered="0"/>
    <interval begin="0.00" end="300.00" id="1_actuated_program_D2.0" nVehContrib="1" flow="12.00" occupancy="0.10" speed="5.24" harmonicMeanSpeed="5.24" length="1.60" nVehEntered="1"/>
    <interval begin="0.00" end="300.00" id="1_actuated_program_D2.1" nVehContrib="18" flow="216.00" occupancy="3.50" speed="10.04" harmonicMeanSpeed="9.12" length="4.62" nVehEntered="19"/>
    <interval begin="0.00" end="300.00" id="1_actuated_program_D2.2" nVehContrib="8" flow="96.00" occupancy="1.21" speed="11.37" harmonicMeanSpeed="11.04" length="5.00" nVehEntered="8"/>
    <interval begin="0.00" end="300.00" id="1_actuated_program_D2.3" nVehContrib="4" flow="48.00" occupancy="0.55" speed="12.15" harmonicMeanSpeed="12.14" length="5.00" nVehEntered="4"/>
    <interval begin="0.00" end="300.00" id="1_actuated_program_D3.0" nVehContrib="6" flow="72.00" occupancy="0.60" speed="5.35" harmonicMeanSpeed="5.32" length="1.60" nVehEntered="6"/>
    <interval begin="0.00" end="300.00" id="1_actuated_program_D4.0" nVehContrib="1" flow="12.00" occupancy="0.10" speed="5.38" harmonicMeanSpeed="5.38" length="1.60" nVehEntered="1"/>
    <interval begin="0.00" end="300.00" id="1_actuated_program_D5.0" nVehContrib="0" flow="0.00" occupancy="0.00" speed="-1.00" harmonicMeanSpeed="-1.00" length="-1.00" nVehEntered="0"/>
    <interval begin="0.00" end="300.00" id="1_actuated_program_D5.1" nVehContrib="18" flow="216.00" occupancy="2.53" speed="8.78" harmonicMeanSpeed="7.35" length="3.68" nVehEntered="18"/>
    <interval begin="0.00" end="300.00" id="1_actuated_program_D5.2" nVehContrib="10" flow="120.00" occupancy="1.36" speed="11.30" harmonicMeanSpeed="10.69" length="4.66" nVehEntered="10"/>
    <interval begin="0.00" end="300.00" id="1_actuated_program_D5.3" nVehContrib="2" flow="24.00" occupancy="0.27" speed="12.14" harmonicMeanSpeed="12.14" length="5.00" nVehEntered="2"/>
    <interval begin="0.00" end="300.00" id="1_actuated_program_D6.0" nVehContrib="3" flow="36.00" occupancy="0.30" speed="5.27" harmonicMeanSpeed="5.25" length="1.60" nVehEntered="3"/>
    <interval begin="0.00" end="300.00" id="1_actuated_program_D7.0" nVehContrib="4" flow="48.00" occupancy="0.46" speed="4.85" harmonicMeanSpeed="4.62" length="1.60" nVehEntered="4"/>
    <interval begin="0.00" end="300.00" id="1_actuated_program_D8.0" nVehContrib="1" flow="12.00" occupancy="0.10" speed="5.27" harmonicMeanSpeed="5.27" length="1.60" nVehEntered="1"/>
    <interval begin="0.00" end="300.00" id="1_actuated_program_D8.1" nVehContrib="18" flow="216.00" occupancy="13.56" speed="8.61" harmonicMeanSpeed="3.21" length="4.62" nVehEntered="19"/>
    <interval begin="0.00" end="300.00" id="1_actuated_program_D8.2" nVehContrib="22" flow="264.00" occupancy="15.63" speed="8.02" harmonicMeanSpeed="3.07" length="5.00" nVehEntered="24"/>
    <interval begin="0.00" end="300.00" id="1_actuated_program_D8.3" nVehContrib="4" flow="48.00" occupancy="0.54" speed="12.35" harmonicMeanSpeed="12.35" length="5.00" nVehEntered="4"/>
    <interval begin="0.00" end="300.00" id="1_actuated_program_D9.0" nVehContrib="14" flow="168.00" occupancy="1.73" speed="4.48" harmonicMeanSpeed="4.32" length="1.60" nVehEntered="14"/>
    <interval begin="0.00" end="300.00" id="1_actuated_program_D10.0" nVehContrib="1" flow="12.00" occupancy="0.10" speed="5.29" harmonicMeanSpeed="5.29" length="1.60" nVehEntered="1"/>
    <interval begin="0.00" end="300.00" id="1_actuated_program_D11.0" nVehContrib="4" flow="48.00" occupancy="0.44" speed="5.01" harmonicMeanSpeed="4.90" length="1.60" nVehEntered="4"/>
    <interval begin="0.00" end="300.00" id="1_actuated_program_D11.1" nVehContrib="24" flow="288.00" occupancy="12.35" speed="5.86" harmonicMeanSpeed="2.75" length="3.87" nVehEntered="26"/>
    <interval begin="0.00" end="300.00" id="1_actuated_program_D11.2" nVehContrib="30" flow="360.00" occupancy="10.93" speed="6.98" harmonicMeanSpeed="4.47" length="4.89" nVehEntered="31"/>
    <interval begin="0.00" end="300.00" id="1_actuated_program_D11.3" nVehContrib="5" flow="60.00" occupancy="0.73" speed="9.96" harmonicMeanSpeed="8.83" length="4.32" nVehEntered="5"/>
    <interval begin="300.00" end="600.00" id="1_actuated_program_D0.0" nVehContrib="9" flow="108.00" occupancy="0.88" speed="5.49" harmonicMeanSpeed="5.47" length="1.60" nVehEntered="9"/>
    <interval begin="300.00" end="600.00" id="1_actuated_program_D1.0" nVehContrib="1" flow="12.00" occupancy="0.09" speed="5.93" harmonicMeanSpeed="5.93" length="1.60" nVehEntered="1"/>
    <interval begin="300.00" end="600.00" id="1_actuated_program_D2.0" nVehContrib="1" flow="12.00" occupancy="0.12" speed="4.46" harmonicMeanSpeed="4.46" length="1.60" nVehEntered="1"/>
    <interval begin="300.00" end="600.00" id="1_actuated_program_D2.1" nVehContrib="12" flow="144.00" occupancy="12.08" speed="6.01" harmonicMeanSpeed="1.52" length="4.43" nVehEntered="11"/>
    <interval begin="300.00" end="600.00" id="1_actuated_program_D2.2" nVehContrib="15" flow="180.00" occupancy="6.70" speed="9.46" harmonicMeanSpeed="3.58" length="4.77" nVehEntered="15"/>
    <interval begin="300.00" end="600.00" id="1_actuated_program_D2.3" nVehContrib="2" flow="24.00" occupancy="0.27" speed="12.39" harmonicMeanSpeed="12.39" length="5.00" nVehEntered="2"/>
    <interval begin="300.00" end="600.00" id="1_actuated_program_D3.0" nVehContrib="8" flow="96.00" occupancy="0.92" speed="4.70" harmonicMeanSpeed="4.65" length="1.60" nVehEntered="8"/>
    <interval begin="300.00" end="600.00" id="1_actuated_program_D4.0" nVehContrib="0" flow="0.00" occupancy="0.00" speed="-1.00" harmonicMeanSpeed="-1.00" length="-1.00" nVehEntered="0"/>
    <interval begin="300.00" end="600.00" id="1_actuated_program_D5.0" nVehContrib="1" flow="12.00" occupancy="0.09" speed="6.02" harmonicMeanSpeed="6.02" length="1.60" nVehEntered="1"/>
    <interval begin="300.00" end="600.00" id="1_actuated_program_D5.1" nVehContrib="14" flow="168.00" occupancy="1.87" speed="7.70" harmonicMeanSpeed="6.41" length="3.06" nVehEntered="14"/>
    <interval begin="300.00" end="600.00" id="1_actuated_program_D5.2" nVehContrib="20" flow="240.00" occupancy="2.94" speed="11.51" harmonicMeanSpeed="11.32" length="5.00" nVehEntered="20"/>
    <interval begin="300.00" end="600.00" id="1_actuated_program_D5.3" nVehContrib="6" flow="72.00" occupancy="0.86" speed="11.69" harmonicMeanSpeed="11.60" length="5.00" nVehEntered="6"/>
    <interval begin="300.00" end="600.00" id="1_actuated_program_D6.0" nVehContrib="4" flow="48.00" occupancy="0.38" speed="5.65" harmonicMeanSpeed="5.61" length="1.60" nVehEntered="4"/>
    <interval begin="300.00" end="600.00" id="1_actuated_program_D7.0" nVehContrib="3" flow="36.00" occupancy="0.31" speed="5.11" harmonicMeanSpeed="5.11" length="1.60" nVehEntered="3"/>
    <interval begin="300.00" end="600.00" id="1_actuated_program_D8.0" nVehContrib="0" flow="0.00" occupancy="0.00" speed="-1.00" harmonicMeanSpeed="-1.00" length="-1.00" nVehEntered="0"/>
    <interval begin="300.00" end="600.00" id="1_actuated_program_D8.1" nVehContrib="18" flow="216.00" occupancy="39.70" speed="5.57" harmonicMeanSpeed="0.68" length="5.00" nVehEntered="17"/>
    <interval begin="300.00" end="600.00" id="1_actuated_program_D8.2" nVehContrib="31" flow="372.00" occupancy="47.91" speed="6.43" harmonicMeanSpeed="1.06" length="5.00" nVehEntered="31"/>
    <interval begin="300.00" end="600.00" id="1_actuated_program_D8.3" nVehContrib="2" flow="24.00" occupancy="0.28" speed="11.85" harmonicMeanSpeed="11.85" length="5.00" nVehEntered="2"/>
    <interval begin="300.00" end="600.00" id="1_actuated_program_D9.0" nVehContrib="16" flow="192.00" occupancy="2.25" speed="4.54" harmonicMeanSpeed="3.79" length="1.60" nVehEntered="16"/>
    <interval begin="300.00" end="600.00" id="1_actuated_program_D10.0" nVehContrib="1" flow="12.00" occupancy="0.12" speed="4.57" harmonicMeanSpeed="4.57" length="1.60" nVehEntered="1"/>
    <interval begin="300.00" end="600.00" id="1_actuated_program_D11.0" nVehContrib="4" flow="48.00" occupancy="0.42" speed="5.06" harmonicMeanSpeed="5.05" length="1.60" nVehEntered="4"/>
    <interval begin="300.00" end="600.00" id="1_actuated_program_D11.1" nVehContrib="24" flow="288.00" occupancy="4.35" speed="6.69" harmonicMeanSpeed="5.38" length="3.30" nVehEntered="24"/>
    <interval begin="300.00" end="600.00" id="1_actuated_program_D11.2" nVehContrib="27" flow="324.00" occupancy="6.43" speed="9.17" harmonicMeanSpeed="6.76" length="4.87" nVehEntered="28"/>
    <interval begin="300.00" end="600.00" id="1_actuated_program_D11.3" nVehContrib="9" flow="108.00" occupancy="1.28" speed="11.88" harmonicMeanSpeed="11.72" length="5.00" nVehEntered="9"/>
    <interval begin="600.00" end="900.00" id="1_actuated_program_D0.0" nVehContrib="9" flow="108.00" occupancy="1.05" speed="4.77" harmonicMeanSpeed="4.57" length="1.60" nVehEntered="9"/>
    <interval begin="600.00" end="900.00" id="1_actuated_program_D1.0" nVehContrib="1" flow="12.00" occupancy="0.10" speed="5.32" harmonicMeanSpeed="5.32" length="1.60" nVehEntered="1"/>
    <interval begin="600.00" end="900.00" id="1_actuated_program_D2.0" nVehContrib="6" flow="72.00" occupancy="0.60" speed="5.36" harmonicMeanSpeed="5.34" length="1.60" nVehEntered="6"/>
    <interval begin="600.00" end="900.00" id="1_actuated_program_D2.1" nVehContrib="15" flow="180.00" occupancy="15.09" speed="4.66" harmonicMeanSpeed="1.40" length="3.19" nVehEntered="16"/>
    <interval begin="600.00" end="900.00" id="1_actuated_program_D2.2" nVehContrib="28" flow="336.00" occupancy="10.28" speed="6.55" harmonicMeanSpeed="4.54" length="5.00" nVehEntered="28"/>
    <interval begin="600.00" end="900.00" id="1_actuated_program_D2.3" nVehContrib="12" flow="144.00" occupancy="10.89" speed="8.83" harmonicMeanSpeed="1.84" length="5.00" nVehEntered="12"/>
    <interval begin="600.00" end="900.00" id="1_actuated_program_D3.0" nVehContrib="7" flow="84.00" occupancy="0.80" speed="4.95" harmonicMeanSpeed="4.66" length="1.60" nVehEntered="7"/>
    <interval begin="600.00" end="900.00" id="1_actuated_program_D4.0" nVehContrib="0" flow="0.00" occupancy="0.00" speed="-1.00" harmonicMeanSpeed="-1.00" length="-1.00" nVehEntered="0"/>
    <interval begin="600.00" end="900.00" id="1_actuated_program_D5.0" nVehContrib="1" flow="12.00" occupancy="0.10" speed="5.27" harmonicMeanSpeed="5.27" length="1.60" nVehEntered="1"/>
    <interval begin="600.00" end="900.00" id="1_actuated_program_D5.1" nVehContrib="20" flow="240.00" occupancy="2.89" speed="8.81" harmonicMeanSpeed="7.56" length="3.81" nVehEntered="20"/>
    <interval begin="600.00" end="900.00" id="1_actuated_program_D5.2" nVehContrib="13" flow="156.00" occupancy="1.89" speed="11.63" harmonicMeanSpeed="11.48" length="5.00" nVehEntered="13"/>
    <interval begin="600.00" end="900.00" id="1_actuated_program_D5.3" nVehContrib="5" flow="60.00" occupancy="0.63" speed="11.02" harmonicMeanSpeed="10.44" length="4.32" nVehEntered="5"/>
    <interval begin="600.00" end="900.00" id="1_actuated_program_D6.0" nVehContrib="3" flow="36.00" occupancy="0.30" speed="5.33" harmonicMeanSpeed="5.32" length="1.60" nVehEntered="3"/>
    <interval begin="600.00" end="900.00" id="1_actuated_program_D7.0" nVehContrib="1" flow="12.00" occupancy="0.11" speed="5.02" harmonicMeanSpeed="5.02" length="1.60" nVehEntered="1"/>
    <interval begin="600.00" end="900.00" id="1_actuated_program_D8.0" nVehContrib="1" flow="12.00" occupancy="0.11" speed="4.85" harmonicMeanSpeed="4.85" length="1.60" nVehEntered="1"/>
    <interval begin="600.00" end="900.00" id="1_actuated_program_D8.1" nVehContrib="25" flow="300.00" occupancy="18.42" speed="9.18" harmonicMeanSpeed="2.29" length="5.00" nVehEntered="27"/>
    <interval begin="600.00" end="900.00" id="1_actuated_program_D8.2" nVehContrib="17" flow="204.00" occupancy="28.88" speed="7.05" harmonicMeanSpeed="1.01" length="5.00" nVehEntered="18"/>
    <interval begin="600.00" end="900.00" id="1_actuated_program_D8.3" nVehContrib="3" flow="36.00" occupancy="0.35" speed="10.41" harmonicMeanSpeed="9.29" length="3.87" nVehEntered="3"/>
    <interval begin="600.00" end="900.00" id="1_actuated_program_D9.0" nVehContrib="14" flow="168.00" occupancy="1.93" speed="4.49" harmonicMeanSpeed="3.86" length="1.60" nVehEntered="14"/>
    <interval begin="600.00" end="900.00" id="1_actuated_program_D10.0" nVehContrib="4" flow="48.00" occupancy="0.52" speed="4.35" harmonicMeanSpeed="4.08" length="1.60" nVehEntered="4"/>
    <interval begin="600.00" end="900.00" id="1_actuated_program_D11.0" nVehContrib="1" flow="12.00" occupancy="0.11" speed="4.82" harmonicMeanSpeed="4.82" length="1.60" nVehEntered="1"/>
    <interval begin="600.00" end="900.00" id="1_actuated_program_D11.1" nVehContrib="21" flow="252.00" occupancy="44.91" speed="4.16" harmonicMeanSpeed="0.73" length="3.87" nVehEntered="22"/>
    <interval begin="600.00" end="900.00" id="1_actuated_program_D11.2" nVehContrib="36" flow="432.00" occupancy="56.43" speed="7.31" harmonicMeanSpeed="1.06" length="5.00" nVehEntered="36"/>
    <interval begin="600.00" end="900.00" id="1_actuated_program_D11.3" nVehContrib="7" flow="84.00" occupancy="1.01" speed="11.59" harmonicMeanSpeed="11.51" length="5.00" nVehEntered="7"/>
    <interval begin="900.00" end="1151.50" id="1_actuated_program_D0.0" nVehContrib="0" flow="0.00" occupancy="0.00" speed="-1.00" harmonicMeanSpeed="-1.00" length="-1.00" nVehEntered="0"/>
    <interval begin="900.00" end="1151.50" id="1_actuated_program_D1.0" nVehContrib="0" flow="0.00" occupancy="0.00" speed="-1.00" harmonicMeanSpeed="-1.00" length="-1.00" nVehEntered="0"/>
    <interval begin="900.00" end="1151.50" id="1_actuated_program_D2.0" nVehContrib="0" flow="0.00" occupancy="0.00" speed="-1.00" harmonicMeanSpeed="-1.00" length="-1.00" nVehEntered="0"/>
    <interval begin="900.00" end="1151.50" id="1_actuated_program_D2.1" nVehContrib="1" flow="14.31" occupancy="0.23" speed="8.80" harmonicMeanSpeed="8.80" length="5.00" nVehEntered="1"/>
    <interval begin="900.00" end="1151.50" id="1_actuated_program_D2.2" nVehContrib="0" flow="0.00" occupancy="0.00" speed="-1.00" harmonicMeanSpeed="-1.00" length="-1.00" nVehEntered="0"/>
    <interval begin="900.00" end="1151.50" id="1_actuated_program_D2.3" nVehContrib="1" flow="14.31" occupancy="0.15" speed="12.83" harmonicMeanSpeed="12.83" length="5.00" nVehEntered="1"/>
    <interval begin="900.00" end="1151.50" id="1_actuated_program_D3.0" nVehContrib="1" flow="14.31" occupancy="0.12" speed="5.22" harmonicMeanSpeed="5.22" length="1.60" nVehEntered="1"/>
    <interval begin="900.00" end="1151.50" id="1_actuated_program_D4.0" nVehContrib="1" flow="14.31" occupancy="0.13" speed="4.94" harmonicMeanSpeed="4.94" length="1.60" nVehEntered="1"/>
    <interval begin="900.00" end="1151.50" id="1_actuated_program_D5.0" nVehContrib="0" flow="0.00" occupancy="0.00" speed="-1.00" harmonicMeanSpeed="-1.00" length="-1.00" nVehEntered="0"/>
    <interval begin="900.00" end="1151.50" id="1_actuated_program_D5.1" nVehContrib="0" flow="0.00" occupancy="0.00" speed="-1.00" harmonicMeanSpeed="-1.00" length="-1.00" nVehEntered="0"/>
    <interval begin="900.00" end="1151.50" id="1_actuated_program_D5.2" nVehContrib="1" flow="14.31" occupancy="0.17" speed="11.62" harmonicMeanSpeed="11.62" length="5.00" nVehEntered="1"/>
    <interval begin="900.00" end="1151.50" id="1_actuated_program_D5.3" nVehContrib="0" flow="0.00" occupancy="0.00" speed="-1.00" harmonicMeanSpeed="-1.00" length="-1.00" nVehEntered="0"/>
    <interval begin="900.00" end="1151.50" id="1_actuated_program_D6.0" nVehContrib="1" flow="14.31" occupancy="0.13" speed="4.99" harmonicMeanSpeed="4.99" length="1.60" nVehEntered="1"/>
    <interval begin="900.00" end="1151.50" id="1_actuated_program_D7.0" nVehContrib="1" flow="14.31" occupancy="0.14" speed="4.69" harmonicMeanSpeed="4.69" length="1.60" nVehEntered="1"/>
    <interval begin="900.00" end="1151.50" id="1_actuated_program_D8.0" nVehContrib="0" flow="0.00" occupancy="0.00" speed="-1.00" harmonicMeanSpeed="-1.00" length="-1.00" nVehEntered="0"/>
    <interval begin="900.00" end="1151.50" id="1_actuated_program_D8.1" nVehContrib="1" flow="14.31" occupancy="0.32" speed="6.21" harmonicMeanSpeed="6.21" length="5.00" nVehEntered="1"/>
    <interval begin="900.00" end="1151.50" id="1_actuated_program_D8.2" nVehContrib="1" flow="14.31" occupancy="0.20" speed="10.01" harmonicMeanSpeed="10.01" length="5.00" nVehEntered="1"/>
    <interval begin="900.00" end="1151.50" id="1_actuated_program_D8.3" nVehContrib="0" flow="0.00" occupancy="0.00" speed="-1.00" harmonicMeanSpeed="-1.00" length="-1.00" nVehEntered="0"/>
    <interval begin="900.00" end="1151.50" id="1_actuated_program_D9.0" nVehContrib="3" flow="42.94" occupancy="0.39" speed="4.93" harmonicMeanSpeed="4.90" length="1.60" nVehEntered="3"/>
    <interval begin="900.00" end="1151.50" id="1_actuated_program_D10.0" nVehContrib="2" flow="28.63" occupancy="0.25" speed="5.03" harmonicMeanSpeed="5.01" length="1.60" nVehEntered="2"/>
    <interval begin="900.00" end="1151.50" id="1_actuated_program_D11.0" nVehContrib="0" flow="0.00" occupancy="0.00" speed="-1.00" harmonicMeanSpeed="-1.00" length="-1.00" nVehEntered="0"/>
    <interval begin="900.00" end="1151.50" id="1_actuated_program_D11.1" nVehContrib="9" flow="128.83" occupancy="9.89" speed="4.30" harmonicMeanSpeed="1.73" length="4.62" nVehEntered="8"/>
    <interval begin="900.00" end="1151.50" id="1_actuated_program_D11.2" nVehContrib="17" flow="243.34" occupancy="5.26" speed="7.09" harmonicMeanSpeed="5.65" length="4.40" nVehEntered="17"/>
    <interval begin="900.00" end="1151.50" id="1_actuated_program_D11.3" nVehContrib="0" flow="0.00" occupancy="0.00" speed="-1.00" harmonicMeanSpeed="-1.00" length="-1.00" nVehEntered="0"/>
</detector>
