<?xml version="1.0" encoding="UTF-8"?>

<!-- generated on 2025-06-22 17:29:28 by Eclipse SUMO GUI Version 1.22.0
<sumoConfiguration xmlns:xsi="http://www.w3.org/2001/XMLSchema-instance" xsi:noNamespaceSchemaLocation="http://sumo.dlr.de/xsd/sumoConfiguration.xsd">

    <input>
        <net-file value="/home/naderian/Desktop/Shakiba/MMSVCC/environment/network_model/single_intersection_pedestrian_X.net.xml"/>
        <route-files value="/home/naderian/Desktop/Shakiba/MMSVCC/environment/network_model/single_intersection.rou.xml"/>
        <additional-files value="/home/naderian/Desktop/Shakiba/MMSVCC/environment/network_model/single_intersection.add_actuated_(LPI).xml"/>
    </input>

    <output>
        <queue-output value="/home/naderian/Desktop/Shakiba/MMSVCC/environment/simulation_data/single_intersection/queues_actuated_asymmetric_pene_100.xml"/>
        <tripinfo-output value="/home/naderian/Desktop/Shakiba/MMSVCC/environment/simulation_data/single_intersection/tripinfo_actuated_asymmetric_pene_100.xml"/>
    </output>

    <time>
        <begin value="0"/>
        <step-length value="0.5"/>
    </time>

    <processing>
        <waiting-time-memory value="1000"/>
    </processing>

    <report>
        <verbose value="true"/>
        <no-step-log value="true"/>
    </report>

    <traci_server>
        <remote-port value="35339"/>
    </traci_server>

    <gui_only>
        <start value="true"/>
    </gui_only>

</sumoConfiguration>
-->

<detector xmlns:xsi="http://www.w3.org/2001/XMLSchema-instance" xsi:noNamespaceSchemaLocation="http://sumo.dlr.de/xsd/det_e1_file.xsd">
    <interval begin="0.00" end="300.00" id="1_actuated_program_D0.0" nVehContrib="19" flow="228.00" occupancy="3.56" speed="10.66" harmonicMeanSpeed="9.12" length="5.00" nVehEntered="20"/>
    <interval begin="0.00" end="300.00" id="1_actuated_program_D0.1" nVehContrib="13" flow="156.00" occupancy="2.27" speed="10.43" harmonicMeanSpeed="9.75" length="5.00" nVehEntered="14"/>
    <interval begin="0.00" end="300.00" id="1_actuated_program_D0.2" nVehContrib="2" flow="24.00" occupancy="0.28" speed="12.12" harmonicMeanSpeed="12.11" length="5.00" nVehEntered="2"/>
    <interval begin="0.00" end="300.00" id="1_actuated_program_D1.0" nVehContrib="17" flow="204.00" occupancy="6.54" speed="9.72" harmonicMeanSpeed="4.33" length="5.00" nVehEntered="17"/>
    <interval begin="0.00" end="300.00" id="1_actuated_program_D1.1" nVehContrib="15" flow="180.00" occupancy="4.43" speed="9.81" harmonicMeanSpeed="5.94" length="5.00" nVehEntered="16"/>
    <interval begin="0.00" end="300.00" id="1_actuated_program_D1.2" nVehContrib="6" flow="72.00" occupancy="0.86" speed="11.69" harmonicMeanSpeed="11.64" length="5.00" nVehEntered="6"/>
    <interval begin="0.00" end="300.00" id="1_actuated_program_D2.0" nVehContrib="22" flow="264.00" occupancy="12.71" speed="9.21" harmonicMeanSpeed="3.31" length="5.00" nVehEntered="24"/>
    <interval begin="0.00" end="300.00" id="1_actuated_program_D2.1" nVehContrib="20" flow="240.00" occupancy="16.06" speed="8.15" harmonicMeanSpeed="2.20" length="5.00" nVehEntered="21"/>
    <interval begin="0.00" end="300.00" id="1_actuated_program_D2.2" nVehContrib="4" flow="48.00" occupancy="0.53" speed="12.58" harmonicMeanSpeed="12.56" length="5.00" nVehEntered="4"/>
    <interval begin="0.00" end="300.00" id="1_actuated_program_D3.0" nVehContrib="23" flow="276.00" occupancy="4.23" speed="10.63" harmonicMeanSpeed="9.07" length="5.00" nVehEntered="23"/>
    <interval begin="0.00" end="300.00" id="1_actuated_program_D3.1" nVehContrib="18" flow="216.00" occupancy="4.24" speed="10.05" harmonicMeanSpeed="9.39" length="5.00" nVehEntered="19"/>
    <interval begin="0.00" end="300.00" id="1_actuated_program_D3.2" nVehContrib="1" flow="12.00" occupancy="0.14" speed="11.55" harmonicMeanSpeed="11.55" length="5.00" nVehEntered="1"/>
    <interval begin="300.00" end="600.00" id="1_actuated_program_D0.0" nVehContrib="21" flow="252.00" occupancy="27.97" speed="6.94" harmonicMeanSpeed="1.26" length="5.00" nVehEntered="22"/>
    <interval begin="300.00" end="600.00" id="1_actuated_program_D0.1" nVehContrib="19" flow="228.00" occupancy="5.01" speed="9.56" harmonicMeanSpeed="6.25" length="5.00" nVehEntered="18"/>
    <interval begin="300.00" end="600.00" id="1_actuated_program_D0.2" nVehContrib="5" flow="60.00" occupancy="0.69" speed="12.02" harmonicMeanSpeed="12.02" length="5.00" nVehEntered="5"/>
    <interval begin="300.00" end="600.00" id="1_actuated_program_D1.0" nVehContrib="13" flow="156.00" occupancy="2.30" speed="10.65" harmonicMeanSpeed="9.52" length="5.00" nVehEntered="14"/>
    <interval begin="300.00" end="600.00" id="1_actuated_program_D1.1" nVehContrib="18" flow="216.00" occupancy="9.34" speed="9.07" harmonicMeanSpeed="3.21" length="5.00" nVehEntered="18"/>
    <interval begin="300.00" end="600.00" id="1_actuated_program_D1.2" nVehContrib="4" flow="48.00" occupancy="4.86" speed="7.06" harmonicMeanSpeed="1.37" length="5.00" nVehEntered="4"/>
    <interval begin="300.00" end="600.00" id="1_actuated_program_D2.0" nVehContrib="23" flow="276.00" occupancy="26.13" speed="6.52" harmonicMeanSpeed="1.39" length="5.00" nVehEntered="23"/>
    <interval begin="300.00" end="600.00" id="1_actuated_program_D2.1" nVehContrib="25" flow="300.00" occupancy="31.66" speed="7.20" harmonicMeanSpeed="1.42" length="5.00" nVehEntered="26"/>
    <interval begin="300.00" end="600.00" id="1_actuated_program_D2.2" nVehContrib="5" flow="60.00" occupancy="0.74" speed="11.44" harmonicMeanSpeed="11.29" length="5.00" nVehEntered="5"/>
    <interval begin="300.00" end="600.00" id="1_actuated_program_D3.0" nVehContrib="19" flow="228.00" occupancy="8.28" speed="8.06" harmonicMeanSpeed="3.85" length="5.00" nVehEntered="20"/>
    <interval begin="300.00" end="600.00" id="1_actuated_program_D3.1" nVehContrib="25" flow="300.00" occupancy="23.49" speed="6.49" harmonicMeanSpeed="1.99" length="5.00" nVehEntered="28"/>
    <interval begin="300.00" end="600.00" id="1_actuated_program_D3.2" nVehContrib="7" flow="84.00" occupancy="1.00" speed="11.75" harmonicMeanSpeed="11.61" length="5.00" nVehEntered="7"/>
    <interval begin="600.00" end="900.00" id="1_actuated_program_D0.0" nVehContrib="18" flow="216.00" occupancy="16.56" speed="6.73" harmonicMeanSpeed="1.82" length="5.00" nVehEntered="19"/>
    <interval begin="600.00" end="900.00" id="1_actuated_program_D0.1" nVehContrib="27" flow="324.00" occupancy="21.16" speed="7.99" harmonicMeanSpeed="2.23" length="5.00" nVehEntered="29"/>
    <interval begin="600.00" end="900.00" id="1_actuated_program_D0.2" nVehContrib="9" flow="108.00" occupancy="8.32" speed="9.86" harmonicMeanSpeed="1.80" length="5.00" nVehEntered="9"/>
    <interval begin="600.00" end="900.00" id="1_actuated_program_D1.0" nVehContrib="20" flow="240.00" occupancy="20.05" speed="8.50" harmonicMeanSpeed="1.66" length="5.00" nVehEntered="20"/>
    <interval begin="600.00" end="900.00" id="1_actuated_program_D1.1" nVehContrib="24" flow="288.00" occupancy="18.81" speed="7.95" harmonicMeanSpeed="2.14" length="5.00" nVehEntered="25"/>
    <interval begin="600.00" end="900.00" id="1_actuated_program_D1.2" nVehContrib="8" flow="96.00" occupancy="1.14" speed="11.79" harmonicMeanSpeed="11.70" length="5.00" nVehEntered="8"/>
    <interval begin="600.00" end="900.00" id="1_actuated_program_D2.0" nVehContrib="22" flow="264.00" occupancy="43.70" speed="7.20" harmonicMeanSpeed="1.25" length="5.00" nVehEntered="24"/>
    <interval begin="600.00" end="900.00" id="1_actuated_program_D2.1" nVehContrib="36" flow="432.00" occupancy="47.59" speed="7.14" harmonicMeanSpeed="1.80" length="5.00" nVehEntered="38"/>
    <interval begin="600.00" end="900.00" id="1_actuated_program_D2.2" nVehContrib="7" flow="84.00" occupancy="0.99" speed="11.90" harmonicMeanSpeed="11.82" length="5.00" nVehEntered="7"/>
    <interval begin="600.00" end="900.00" id="1_actuated_program_D3.0" nVehContrib="26" flow="312.00" occupancy="42.56" speed="6.04" harmonicMeanSpeed="1.03" length="5.00" nVehEntered="28"/>
    <interval begin="600.00" end="900.00" id="1_actuated_program_D3.1" nVehContrib="24" flow="288.00" occupancy="44.06" speed="5.94" harmonicMeanSpeed="0.91" length="5.00" nVehEntered="24"/>
    <interval begin="600.00" end="900.00" id="1_actuated_program_D3.2" nVehContrib="11" flow="132.00" occupancy="1.79" speed="10.74" harmonicMeanSpeed="10.24" length="5.00" nVehEntered="11"/>
    <interval begin="900.00" end="1148.50" id="1_actuated_program_D0.0" nVehContrib="0" flow="0.00" occupancy="0.00" speed="-1.00" harmonicMeanSpeed="-1.00" length="-1.00" nVehEntered="0"/>
    <interval begin="900.00" end="1148.50" id="1_actuated_program_D0.1" nVehContrib="3" flow="43.46" occupancy="0.54" speed="10.34" harmonicMeanSpeed="10.20" length="5.00" nVehEntered="2"/>
    <interval begin="900.00" end="1148.50" id="1_actuated_program_D0.2" nVehContrib="0" flow="0.00" occupancy="0.00" speed="-1.00" harmonicMeanSpeed="-1.00" length="-1.00" nVehEntered="0"/>
    <interval begin="900.00" end="1148.50" id="1_actuated_program_D1.0" nVehContrib="0" flow="0.00" occupancy="0.00" speed="-1.00" harmonicMeanSpeed="-1.00" length="-1.00" nVehEntered="0"/>
    <interval begin="900.00" end="1148.50" id="1_actuated_program_D1.1" nVehContrib="3" flow="43.46" occupancy="0.50" speed="12.09" harmonicMeanSpeed="12.08" length="5.00" nVehEntered="3"/>
    <interval begin="900.00" end="1148.50" id="1_actuated_program_D1.2" nVehContrib="1" flow="14.49" occupancy="0.31" speed="6.40" harmonicMeanSpeed="6.40" length="5.00" nVehEntered="1"/>
    <interval begin="900.00" end="1148.50" id="1_actuated_program_D2.0" nVehContrib="5" flow="72.43" occupancy="28.08" speed="1.71" harmonicMeanSpeed="0.22" length="5.00" nVehEntered="4"/>
    <interval begin="900.00" end="1148.50" id="1_actuated_program_D2.1" nVehContrib="8" flow="115.90" occupancy="26.93" speed="3.74" harmonicMeanSpeed="0.38" length="5.00" nVehEntered="7"/>
    <interval begin="900.00" end="1148.50" id="1_actuated_program_D2.2" nVehContrib="0" flow="0.00" occupancy="0.00" speed="-1.00" harmonicMeanSpeed="-1.00" length="-1.00" nVehEntered="0"/>
    <interval begin="900.00" end="1148.50" id="1_actuated_program_D3.0" nVehContrib="2" flow="28.97" occupancy="2.08" speed="1.97" harmonicMeanSpeed="1.93" length="5.00" nVehEntered="2"/>
    <interval begin="900.00" end="1148.50" id="1_actuated_program_D3.1" nVehContrib="8" flow="115.90" occupancy="2.98" speed="7.49" harmonicMeanSpeed="5.40" length="5.00" nVehEntered="8"/>
    <interval begin="900.00" end="1148.50" id="1_actuated_program_D3.2" nVehContrib="1" flow="14.49" occupancy="0.34" speed="5.92" harmonicMeanSpeed="5.92" length="5.00" nVehEntered="1"/>
</detector>
