<?xml version="1.0" encoding="UTF-8"?>

<!-- generated on 2025-06-28 16:27:26 by Eclipse SUMO GUI Version 1.22.0
<sumoConfiguration xmlns:xsi="http://www.w3.org/2001/XMLSchema-instance" xsi:noNamespaceSchemaLocation="http://sumo.dlr.de/xsd/sumoConfiguration.xsd">

    <input>
        <net-file value="/home/naderian/Desktop/Shakiba/MMSVCC/environment/network_model/single_intersection_bike.net.xml"/>
        <route-files value="/home/naderian/Desktop/Shakiba/MMSVCC/environment/network_model/single_intersection.rou.xml"/>
        <additional-files value="/home/naderian/Desktop/Shakiba/MMSVCC/environment/network_model/single_intersection.add_actuated.xml"/>
    </input>

    <output>
        <queue-output value="/home/naderian/Desktop/Shakiba/MMSVCC/environment/simulation_data/single_intersection/queues_actuated_pene_100.xml"/>
        <tripinfo-output value="/home/naderian/Desktop/Shakiba/MMSVCC/environment/simulation_data/single_intersection/tripinfo_actuated_pene_100.xml"/>
    </output>

    <time>
        <begin value="0"/>
        <step-length value="0.5"/>
    </time>

    <processing>
        <waiting-time-memory value="1000"/>
    </processing>

    <report>
        <verbose value="true"/>
        <no-step-log value="true"/>
    </report>

    <ssm_device>
        <device.ssm.file value="/home/naderian/Desktop/Shakiba/MMSVCC/environment/simulation_data/single_intersection/SSMinfo_actuated_pene_100.xml"/>
    </ssm_device>

    <traci_server>
        <remote-port value="43693"/>
    </traci_server>

    <gui_only>
        <start value="true"/>
    </gui_only>

</sumoConfiguration>
-->

<detector xmlns:xsi="http://www.w3.org/2001/XMLSchema-instance" xsi:noNamespaceSchemaLocation="http://sumo.dlr.de/xsd/det_e1_file.xsd">
    <interval begin="0.00" end="300.00" id="1_actuated_program_D0.0" nVehContrib="4" flow="48.00" occupancy="0.56" speed="4.07" harmonicMeanSpeed="3.81" length="1.60" nVehEntered="4"/>
    <interval begin="0.00" end="300.00" id="1_actuated_program_D1.0" nVehContrib="0" flow="0.00" occupancy="0.00" speed="-1.00" harmonicMeanSpeed="-1.00" length="-1.00" nVehEntered="0"/>
    <interval begin="0.00" end="300.00" id="1_actuated_program_D2.0" nVehContrib="1" flow="12.00" occupancy="0.08" speed="6.36" harmonicMeanSpeed="6.36" length="1.60" nVehEntered="1"/>
    <interval begin="0.00" end="300.00" id="1_actuated_program_D2.1" nVehContrib="29" flow="348.00" occupancy="12.90" speed="6.79" harmonicMeanSpeed="3.10" length="4.06" nVehEntered="29"/>
    <interval begin="0.00" end="300.00" id="1_actuated_program_D2.2" nVehContrib="22" flow="264.00" occupancy="11.07" speed="7.11" harmonicMeanSpeed="3.26" length="4.85" nVehEntered="22"/>
    <interval begin="0.00" end="300.00" id="1_actuated_program_D2.3" nVehContrib="6" flow="72.00" occupancy="0.98" speed="10.73" harmonicMeanSpeed="10.24" length="5.00" nVehEntered="6"/>
    <interval begin="0.00" end="300.00" id="1_actuated_program_D3.0" nVehContrib="5" flow="60.00" occupancy="0.51" speed="5.26" harmonicMeanSpeed="5.18" length="1.60" nVehEntered="5"/>
    <interval begin="0.00" end="300.00" id="1_actuated_program_D4.0" nVehContrib="0" flow="0.00" occupancy="0.00" speed="-1.00" harmonicMeanSpeed="-1.00" length="-1.00" nVehEntered="0"/>
    <interval begin="0.00" end="300.00" id="1_actuated_program_D5.0" nVehContrib="0" flow="0.00" occupancy="0.00" speed="-1.00" harmonicMeanSpeed="-1.00" length="-1.00" nVehEntered="0"/>
    <interval begin="0.00" end="300.00" id="1_actuated_program_D5.1" nVehContrib="19" flow="228.00" occupancy="22.01" speed="7.80" harmonicMeanSpeed="0.55" length="3.75" nVehEntered="20"/>
    <interval begin="0.00" end="300.00" id="1_actuated_program_D5.2" nVehContrib="16" flow="192.00" occupancy="22.59" speed="8.01" harmonicMeanSpeed="5.83" length="5.00" nVehEntered="17"/>
    <interval begin="0.00" end="300.00" id="1_actuated_program_D5.3" nVehContrib="6" flow="72.00" occupancy="0.84" speed="11.99" harmonicMeanSpeed="11.96" length="5.00" nVehEntered="6"/>
    <interval begin="0.00" end="300.00" id="1_actuated_program_D6.0" nVehContrib="3" flow="36.00" occupancy="0.30" speed="5.28" harmonicMeanSpeed="5.25" length="1.60" nVehEntered="3"/>
    <interval begin="0.00" end="300.00" id="1_actuated_program_D7.0" nVehContrib="3" flow="36.00" occupancy="0.33" speed="4.96" harmonicMeanSpeed="4.90" length="1.60" nVehEntered="3"/>
    <interval begin="0.00" end="300.00" id="1_actuated_program_D8.0" nVehContrib="0" flow="0.00" occupancy="0.00" speed="-1.00" harmonicMeanSpeed="-1.00" length="-1.00" nVehEntered="0"/>
    <interval begin="0.00" end="300.00" id="1_actuated_program_D8.1" nVehContrib="20" flow="240.00" occupancy="22.18" speed="5.90" harmonicMeanSpeed="1.45" length="4.49" nVehEntered="20"/>
    <interval begin="0.00" end="300.00" id="1_actuated_program_D8.2" nVehContrib="26" flow="312.00" occupancy="25.22" speed="7.70" harmonicMeanSpeed="1.73" length="5.00" nVehEntered="27"/>
    <interval begin="0.00" end="300.00" id="1_actuated_program_D8.3" nVehContrib="7" flow="84.00" occupancy="1.01" speed="10.47" harmonicMeanSpeed="9.52" length="4.51" nVehEntered="7"/>
    <interval begin="0.00" end="300.00" id="1_actuated_program_D9.0" nVehContrib="17" flow="204.00" occupancy="2.81" speed="4.73" harmonicMeanSpeed="3.23" length="1.60" nVehEntered="17"/>
    <interval begin="0.00" end="300.00" id="1_actuated_program_D10.0" nVehContrib="1" flow="12.00" occupancy="0.09" speed="6.19" harmonicMeanSpeed="6.19" length="1.60" nVehEntered="1"/>
    <interval begin="0.00" end="300.00" id="1_actuated_program_D11.0" nVehContrib="4" flow="48.00" occupancy="0.44" speed="4.86" harmonicMeanSpeed="4.81" length="1.60" nVehEntered="4"/>
    <interval begin="0.00" end="300.00" id="1_actuated_program_D11.1" nVehContrib="22" flow="264.00" occupancy="20.54" speed="6.07" harmonicMeanSpeed="1.61" length="3.30" nVehEntered="23"/>
    <interval begin="0.00" end="300.00" id="1_actuated_program_D11.2" nVehContrib="27" flow="324.00" occupancy="19.98" speed="7.94" harmonicMeanSpeed="2.72" length="4.37" nVehEntered="28"/>
    <interval begin="0.00" end="300.00" id="1_actuated_program_D11.3" nVehContrib="7" flow="84.00" occupancy="0.91" speed="11.35" harmonicMeanSpeed="10.18" length="4.51" nVehEntered="7"/>
    <interval begin="300.00" end="600.00" id="1_actuated_program_D0.0" nVehContrib="8" flow="96.00" occupancy="1.66" speed="4.23" harmonicMeanSpeed="2.57" length="1.60" nVehEntered="8"/>
    <interval begin="300.00" end="600.00" id="1_actuated_program_D1.0" nVehContrib="1" flow="12.00" occupancy="0.11" speed="4.98" harmonicMeanSpeed="4.98" length="1.60" nVehEntered="1"/>
    <interval begin="300.00" end="600.00" id="1_actuated_program_D2.0" nVehContrib="3" flow="36.00" occupancy="0.31" speed="5.14" harmonicMeanSpeed="5.08" length="1.60" nVehEntered="3"/>
    <interval begin="300.00" end="600.00" id="1_actuated_program_D2.1" nVehContrib="29" flow="348.00" occupancy="25.27" speed="3.47" harmonicMeanSpeed="1.27" length="3.71" nVehEntered="30"/>
    <interval begin="300.00" end="600.00" id="1_actuated_program_D2.2" nVehContrib="33" flow="396.00" occupancy="51.99" speed="7.33" harmonicMeanSpeed="1.16" length="4.90" nVehEntered="35"/>
    <interval begin="300.00" end="600.00" id="1_actuated_program_D2.3" nVehContrib="9" flow="108.00" occupancy="1.48" speed="9.81" harmonicMeanSpeed="8.73" length="4.62" nVehEntered="9"/>
    <interval begin="300.00" end="600.00" id="1_actuated_program_D3.0" nVehContrib="7" flow="84.00" occupancy="0.69" speed="5.49" harmonicMeanSpeed="5.45" length="1.60" nVehEntered="7"/>
    <interval begin="300.00" end="600.00" id="1_actuated_program_D4.0" nVehContrib="0" flow="0.00" occupancy="0.00" speed="-1.00" harmonicMeanSpeed="-1.00" length="-1.00" nVehEntered="0"/>
    <interval begin="300.00" end="600.00" id="1_actuated_program_D5.0" nVehContrib="1" flow="12.00" occupancy="0.10" speed="5.09" harmonicMeanSpeed="5.09" length="1.60" nVehEntered="1"/>
    <interval begin="300.00" end="600.00" id="1_actuated_program_D5.1" nVehContrib="25" flow="300.00" occupancy="13.15" speed="4.41" harmonicMeanSpeed="2.16" length="3.64" nVehEntered="24"/>
    <interval begin="300.00" end="600.00" id="1_actuated_program_D5.2" nVehContrib="32" flow="384.00" occupancy="21.13" speed="6.85" harmonicMeanSpeed="1.34" length="4.79" nVehEntered="31"/>
    <interval begin="300.00" end="600.00" id="1_actuated_program_D5.3" nVehContrib="9" flow="108.00" occupancy="1.01" speed="6.68" harmonicMeanSpeed="5.84" length="2.36" nVehEntered="9"/>
    <interval begin="300.00" end="600.00" id="1_actuated_program_D6.0" nVehContrib="8" flow="96.00" occupancy="0.87" speed="4.99" harmonicMeanSpeed="4.89" length="1.60" nVehEntered="8"/>
    <interval begin="300.00" end="600.00" id="1_actuated_program_D7.0" nVehContrib="4" flow="48.00" occupancy="0.43" speed="4.99" harmonicMeanSpeed="4.95" length="1.60" nVehEntered="4"/>
    <interval begin="300.00" end="600.00" id="1_actuated_program_D8.0" nVehContrib="1" flow="12.00" occupancy="0.09" speed="6.12" harmonicMeanSpeed="6.12" length="1.60" nVehEntered="1"/>
    <interval begin="300.00" end="600.00" id="1_actuated_program_D8.1" nVehContrib="19" flow="228.00" occupancy="37.74" speed="4.51" harmonicMeanSpeed="1.17" length="4.28" nVehEntered="23"/>
    <interval begin="300.00" end="600.00" id="1_actuated_program_D8.2" nVehContrib="27" flow="324.00" occupancy="30.46" speed="7.89" harmonicMeanSpeed="1.86" length="5.00" nVehEntered="27"/>
    <interval begin="300.00" end="600.00" id="1_actuated_program_D8.3" nVehContrib="6" flow="72.00" occupancy="0.83" speed="10.42" harmonicMeanSpeed="9.67" length="4.43" nVehEntered="6"/>
    <interval begin="300.00" end="600.00" id="1_actuated_program_D9.0" nVehContrib="23" flow="276.00" occupancy="9.34" speed="2.68" harmonicMeanSpeed="1.60" length="1.60" nVehEntered="24"/>
    <interval begin="300.00" end="600.00" id="1_actuated_program_D10.0" nVehContrib="3" flow="36.00" occupancy="0.32" speed="5.05" harmonicMeanSpeed="5.00" length="1.60" nVehEntered="3"/>
    <interval begin="300.00" end="600.00" id="1_actuated_program_D11.0" nVehContrib="4" flow="48.00" occupancy="0.42" speed="5.15" harmonicMeanSpeed="5.13" length="1.60" nVehEntered="4"/>
    <interval begin="300.00" end="600.00" id="1_actuated_program_D11.1" nVehContrib="20" flow="240.00" occupancy="39.15" speed="2.39" harmonicMeanSpeed="0.80" length="2.96" nVehEntered="21"/>
    <interval begin="300.00" end="600.00" id="1_actuated_program_D11.2" nVehContrib="35" flow="420.00" occupancy="63.84" speed="4.89" harmonicMeanSpeed="0.76" length="4.51" nVehEntered="34"/>
    <interval begin="300.00" end="600.00" id="1_actuated_program_D11.3" nVehContrib="5" flow="60.00" occupancy="0.67" speed="10.49" harmonicMeanSpeed="9.10" length="4.32" nVehEntered="5"/>
    <interval begin="600.00" end="900.00" id="1_actuated_program_D0.0" nVehContrib="9" flow="108.00" occupancy="1.24" speed="4.12" harmonicMeanSpeed="3.87" length="1.60" nVehEntered="9"/>
    <interval begin="600.00" end="900.00" id="1_actuated_program_D1.0" nVehContrib="0" flow="0.00" occupancy="0.00" speed="-1.00" harmonicMeanSpeed="-1.00" length="-1.00" nVehEntered="0"/>
    <interval begin="600.00" end="900.00" id="1_actuated_program_D2.0" nVehContrib="0" flow="0.00" occupancy="0.00" speed="-1.00" harmonicMeanSpeed="-1.00" length="-1.00" nVehEntered="0"/>
    <interval begin="600.00" end="900.00" id="1_actuated_program_D2.1" nVehContrib="21" flow="252.00" occupancy="59.96" speed="2.50" harmonicMeanSpeed="0.68" length="4.03" nVehEntered="22"/>
    <interval begin="600.00" end="900.00" id="1_actuated_program_D2.2" nVehContrib="38" flow="456.00" occupancy="71.04" speed="6.65" harmonicMeanSpeed="1.08" length="4.91" nVehEntered="39"/>
    <interval begin="600.00" end="900.00" id="1_actuated_program_D2.3" nVehContrib="11" flow="132.00" occupancy="18.82" speed="6.80" harmonicMeanSpeed="0.95" length="4.38" nVehEntered="11"/>
    <interval begin="600.00" end="900.00" id="1_actuated_program_D3.0" nVehContrib="9" flow="108.00" occupancy="0.96" speed="5.15" harmonicMeanSpeed="5.01" length="1.60" nVehEntered="9"/>
    <interval begin="600.00" end="900.00" id="1_actuated_program_D4.0" nVehContrib="1" flow="12.00" occupancy="0.09" speed="5.92" harmonicMeanSpeed="5.92" length="1.60" nVehEntered="1"/>
    <interval begin="600.00" end="900.00" id="1_actuated_program_D5.0" nVehContrib="0" flow="0.00" occupancy="0.00" speed="-1.00" harmonicMeanSpeed="-1.00" length="-1.00" nVehEntered="0"/>
    <interval begin="600.00" end="900.00" id="1_actuated_program_D5.1" nVehContrib="15" flow="180.00" occupancy="71.18" speed="3.13" harmonicMeanSpeed="0.35" length="4.55" nVehEntered="16"/>
    <interval begin="600.00" end="900.00" id="1_actuated_program_D5.2" nVehContrib="43" flow="516.00" occupancy="65.38" speed="7.98" harmonicMeanSpeed="1.09" length="4.92" nVehEntered="43"/>
    <interval begin="600.00" end="900.00" id="1_actuated_program_D5.3" nVehContrib="12" flow="144.00" occupancy="2.61" speed="7.48" harmonicMeanSpeed="5.69" length="3.87" nVehEntered="12"/>
    <interval begin="600.00" end="900.00" id="1_actuated_program_D6.0" nVehContrib="2" flow="24.00" occupancy="0.20" speed="5.29" harmonicMeanSpeed="5.28" length="1.60" nVehEntered="2"/>
    <interval begin="600.00" end="900.00" id="1_actuated_program_D7.0" nVehContrib="6" flow="72.00" occupancy="0.71" speed="4.63" harmonicMeanSpeed="4.50" length="1.60" nVehEntered="6"/>
    <interval begin="600.00" end="900.00" id="1_actuated_program_D8.0" nVehContrib="2" flow="24.00" occupancy="0.21" speed="4.98" harmonicMeanSpeed="4.97" length="1.60" nVehEntered="2"/>
    <interval begin="600.00" end="900.00" id="1_actuated_program_D8.1" nVehContrib="12" flow="144.00" occupancy="86.60" speed="0.91" harmonicMeanSpeed="0.26" length="5.00" nVehEntered="12"/>
    <interval begin="600.00" end="900.00" id="1_actuated_program_D8.2" nVehContrib="37" flow="444.00" occupancy="75.24" speed="6.73" harmonicMeanSpeed="0.98" length="4.91" nVehEntered="37"/>
    <interval begin="600.00" end="900.00" id="1_actuated_program_D8.3" nVehContrib="10" flow="120.00" occupancy="1.54" speed="10.34" harmonicMeanSpeed="9.64" length="4.66" nVehEntered="10"/>
    <interval begin="600.00" end="900.00" id="1_actuated_program_D9.0" nVehContrib="18" flow="216.00" occupancy="23.77" speed="1.91" harmonicMeanSpeed="0.38" length="1.60" nVehEntered="17"/>
    <interval begin="600.00" end="900.00" id="1_actuated_program_D10.0" nVehContrib="0" flow="0.00" occupancy="0.00" speed="-1.00" harmonicMeanSpeed="-1.00" length="-1.00" nVehEntered="0"/>
    <interval begin="600.00" end="900.00" id="1_actuated_program_D11.0" nVehContrib="6" flow="72.00" occupancy="0.65" speed="4.96" harmonicMeanSpeed="4.93" length="1.60" nVehEntered="6"/>
    <interval begin="600.00" end="900.00" id="1_actuated_program_D11.1" nVehContrib="9" flow="108.00" occupancy="85.07" speed="1.24" harmonicMeanSpeed="0.17" length="4.24" nVehEntered="9"/>
    <interval begin="600.00" end="900.00" id="1_actuated_program_D11.2" nVehContrib="37" flow="444.00" occupancy="77.27" speed="4.20" harmonicMeanSpeed="0.77" length="4.26" nVehEntered="37"/>
    <interval begin="600.00" end="900.00" id="1_actuated_program_D11.3" nVehContrib="10" flow="120.00" occupancy="1.91" speed="8.47" harmonicMeanSpeed="7.79" length="4.66" nVehEntered="10"/>
    <interval begin="900.00" end="1200.00" id="1_actuated_program_D0.0" nVehContrib="0" flow="0.00" occupancy="0.00" speed="-1.00" harmonicMeanSpeed="-1.00" length="-1.00" nVehEntered="0"/>
    <interval begin="900.00" end="1200.00" id="1_actuated_program_D1.0" nVehContrib="0" flow="0.00" occupancy="0.00" speed="-1.00" harmonicMeanSpeed="-1.00" length="-1.00" nVehEntered="0"/>
    <interval begin="900.00" end="1200.00" id="1_actuated_program_D2.0" nVehContrib="0" flow="0.00" occupancy="0.00" speed="-1.00" harmonicMeanSpeed="-1.00" length="-1.00" nVehEntered="0"/>
    <interval begin="900.00" end="1200.00" id="1_actuated_program_D2.1" nVehContrib="4" flow="48.00" occupancy="17.23" speed="0.90" harmonicMeanSpeed="0.23" length="5.00" nVehEntered="3"/>
    <interval begin="900.00" end="1200.00" id="1_actuated_program_D2.2" nVehContrib="5" flow="60.00" occupancy="18.59" speed="4.17" harmonicMeanSpeed="0.24" length="5.00" nVehEntered="4"/>
    <interval begin="900.00" end="1200.00" id="1_actuated_program_D2.3" nVehContrib="0" flow="0.00" occupancy="0.00" speed="-1.00" harmonicMeanSpeed="-1.00" length="-1.00" nVehEntered="0"/>
    <interval begin="900.00" end="1200.00" id="1_actuated_program_D3.0" nVehContrib="2" flow="24.00" occupancy="0.24" speed="4.52" harmonicMeanSpeed="4.52" length="1.60" nVehEntered="2"/>
    <interval begin="900.00" end="1200.00" id="1_actuated_program_D4.0" nVehContrib="2" flow="24.00" occupancy="0.22" speed="4.96" harmonicMeanSpeed="4.94" length="1.60" nVehEntered="2"/>
    <interval begin="900.00" end="1200.00" id="1_actuated_program_D5.0" nVehContrib="0" flow="0.00" occupancy="0.00" speed="-1.00" harmonicMeanSpeed="-1.00" length="-1.00" nVehEntered="0"/>
    <interval begin="900.00" end="1200.00" id="1_actuated_program_D5.1" nVehContrib="6" flow="72.00" occupancy="33.08" speed="1.91" harmonicMeanSpeed="0.30" length="4.43" nVehEntered="6"/>
    <interval begin="900.00" end="1200.00" id="1_actuated_program_D5.2" nVehContrib="12" flow="144.00" occupancy="34.33" speed="4.38" harmonicMeanSpeed="0.20" length="3.87" nVehEntered="12"/>
    <interval begin="900.00" end="1200.00" id="1_actuated_program_D5.3" nVehContrib="1" flow="12.00" occupancy="1.34" speed="1.24" harmonicMeanSpeed="1.24" length="5.00" nVehEntered="1"/>
    <interval begin="900.00" end="1200.00" id="1_actuated_program_D6.0" nVehContrib="2" flow="24.00" occupancy="0.24" speed="4.51" harmonicMeanSpeed="4.47" length="1.60" nVehEntered="2"/>
    <interval begin="900.00" end="1200.00" id="1_actuated_program_D7.0" nVehContrib="1" flow="12.00" occupancy="0.14" speed="3.90" harmonicMeanSpeed="3.90" length="1.60" nVehEntered="1"/>
    <interval begin="900.00" end="1200.00" id="1_actuated_program_D8.0" nVehContrib="0" flow="0.00" occupancy="0.00" speed="-1.00" harmonicMeanSpeed="-1.00" length="-1.00" nVehEntered="0"/>
    <interval begin="900.00" end="1200.00" id="1_actuated_program_D8.1" nVehContrib="6" flow="72.00" occupancy="24.72" speed="1.29" harmonicMeanSpeed="0.23" length="5.00" nVehEntered="5"/>
    <interval begin="900.00" end="1200.00" id="1_actuated_program_D8.2" nVehContrib="15" flow="180.00" occupancy="21.22" speed="6.45" harmonicMeanSpeed="0.63" length="5.00" nVehEntered="14"/>
    <interval begin="900.00" end="1200.00" id="1_actuated_program_D8.3" nVehContrib="1" flow="12.00" occupancy="0.09" speed="6.12" harmonicMeanSpeed="6.12" length="1.60" nVehEntered="1"/>
    <interval begin="900.00" end="1200.00" id="1_actuated_program_D9.0" nVehContrib="7" flow="84.00" occupancy="1.85" speed="2.48" harmonicMeanSpeed="2.02" length="1.60" nVehEntered="7"/>
    <interval begin="900.00" end="1200.00" id="1_actuated_program_D10.0" nVehContrib="0" flow="0.00" occupancy="0.00" speed="-1.00" harmonicMeanSpeed="-1.00" length="-1.00" nVehEntered="0"/>
    <interval begin="900.00" end="1200.00" id="1_actuated_program_D11.0" nVehContrib="0" flow="0.00" occupancy="0.00" speed="-1.00" harmonicMeanSpeed="-1.00" length="-1.00" nVehEntered="0"/>
    <interval begin="900.00" end="1200.00" id="1_actuated_program_D11.1" nVehContrib="24" flow="288.00" occupancy="56.89" speed="2.66" harmonicMeanSpeed="0.64" length="4.43" nVehEntered="23"/>
    <interval begin="900.00" end="1200.00" id="1_actuated_program_D11.2" nVehContrib="44" flow="528.00" occupancy="17.43" speed="4.86" harmonicMeanSpeed="3.26" length="4.07" nVehEntered="44"/>
    <interval begin="900.00" end="1200.00" id="1_actuated_program_D11.3" nVehContrib="0" flow="0.00" occupancy="0.00" speed="-1.00" harmonicMeanSpeed="-1.00" length="-1.00" nVehEntered="0"/>
    <interval begin="1200.00" end="1249.50" id="1_actuated_program_D0.0" nVehContrib="0" flow="0.00" occupancy="0.00" speed="-1.00" harmonicMeanSpeed="-1.00" length="-1.00" nVehEntered="0"/>
    <interval begin="1200.00" end="1249.50" id="1_actuated_program_D1.0" nVehContrib="0" flow="0.00" occupancy="0.00" speed="-1.00" harmonicMeanSpeed="-1.00" length="-1.00" nVehEntered="0"/>
    <interval begin="1200.00" end="1249.50" id="1_actuated_program_D2.0" nVehContrib="0" flow="0.00" occupancy="0.00" speed="-1.00" harmonicMeanSpeed="-1.00" length="-1.00" nVehEntered="0"/>
    <interval begin="1200.00" end="1249.50" id="1_actuated_program_D2.1" nVehContrib="0" flow="0.00" occupancy="0.00" speed="-1.00" harmonicMeanSpeed="-1.00" length="-1.00" nVehEntered="0"/>
    <interval begin="1200.00" end="1249.50" id="1_actuated_program_D2.2" nVehContrib="0" flow="0.00" occupancy="0.00" speed="-1.00" harmonicMeanSpeed="-1.00" length="-1.00" nVehEntered="0"/>
    <interval begin="1200.00" end="1249.50" id="1_actuated_program_D2.3" nVehContrib="0" flow="0.00" occupancy="0.00" speed="-1.00" harmonicMeanSpeed="-1.00" length="-1.00" nVehEntered="0"/>
    <interval begin="1200.00" end="1249.50" id="1_actuated_program_D3.0" nVehContrib="0" flow="0.00" occupancy="0.00" speed="-1.00" harmonicMeanSpeed="-1.00" length="-1.00" nVehEntered="0"/>
    <interval begin="1200.00" end="1249.50" id="1_actuated_program_D4.0" nVehContrib="0" flow="0.00" occupancy="0.00" speed="-1.00" harmonicMeanSpeed="-1.00" length="-1.00" nVehEntered="0"/>
    <interval begin="1200.00" end="1249.50" id="1_actuated_program_D5.0" nVehContrib="0" flow="0.00" occupancy="0.00" speed="-1.00" harmonicMeanSpeed="-1.00" length="-1.00" nVehEntered="0"/>
    <interval begin="1200.00" end="1249.50" id="1_actuated_program_D5.1" nVehContrib="0" flow="0.00" occupancy="0.00" speed="-1.00" harmonicMeanSpeed="-1.00" length="-1.00" nVehEntered="0"/>
    <interval begin="1200.00" end="1249.50" id="1_actuated_program_D5.2" nVehContrib="0" flow="0.00" occupancy="0.00" speed="-1.00" harmonicMeanSpeed="-1.00" length="-1.00" nVehEntered="0"/>
    <interval begin="1200.00" end="1249.50" id="1_actuated_program_D5.3" nVehContrib="0" flow="0.00" occupancy="0.00" speed="-1.00" harmonicMeanSpeed="-1.00" length="-1.00" nVehEntered="0"/>
    <interval begin="1200.00" end="1249.50" id="1_actuated_program_D6.0" nVehContrib="0" flow="0.00" occupancy="0.00" speed="-1.00" harmonicMeanSpeed="-1.00" length="-1.00" nVehEntered="0"/>
    <interval begin="1200.00" end="1249.50" id="1_actuated_program_D7.0" nVehContrib="0" flow="0.00" occupancy="0.00" speed="-1.00" harmonicMeanSpeed="-1.00" length="-1.00" nVehEntered="0"/>
    <interval begin="1200.00" end="1249.50" id="1_actuated_program_D8.0" nVehContrib="0" flow="0.00" occupancy="0.00" speed="-1.00" harmonicMeanSpeed="-1.00" length="-1.00" nVehEntered="0"/>
    <interval begin="1200.00" end="1249.50" id="1_actuated_program_D8.1" nVehContrib="0" flow="0.00" occupancy="0.00" speed="-1.00" harmonicMeanSpeed="-1.00" length="-1.00" nVehEntered="0"/>
    <interval begin="1200.00" end="1249.50" id="1_actuated_program_D8.2" nVehContrib="0" flow="0.00" occupancy="0.00" speed="-1.00" harmonicMeanSpeed="-1.00" length="-1.00" nVehEntered="0"/>
    <interval begin="1200.00" end="1249.50" id="1_actuated_program_D8.3" nVehContrib="0" flow="0.00" occupancy="0.00" speed="-1.00" harmonicMeanSpeed="-1.00" length="-1.00" nVehEntered="0"/>
    <interval begin="1200.00" end="1249.50" id="1_actuated_program_D9.0" nVehContrib="0" flow="0.00" occupancy="0.00" speed="-1.00" harmonicMeanSpeed="-1.00" length="-1.00" nVehEntered="0"/>
    <interval begin="1200.00" end="1249.50" id="1_actuated_program_D10.0" nVehContrib="0" flow="0.00" occupancy="0.00" speed="-1.00" harmonicMeanSpeed="-1.00" length="-1.00" nVehEntered="0"/>
    <interval begin="1200.00" end="1249.50" id="1_actuated_program_D11.0" nVehContrib="0" flow="0.00" occupancy="0.00" speed="-1.00" harmonicMeanSpeed="-1.00" length="-1.00" nVehEntered="0"/>
    <interval begin="1200.00" end="1249.50" id="1_actuated_program_D11.1" nVehContrib="0" flow="0.00" occupancy="0.00" speed="-1.00" harmonicMeanSpeed="-1.00" length="-1.00" nVehEntered="0"/>
    <interval begin="1200.00" end="1249.50" id="1_actuated_program_D11.2" nVehContrib="0" flow="0.00" occupancy="0.00" speed="-1.00" harmonicMeanSpeed="-1.00" length="-1.00" nVehEntered="0"/>
    <interval begin="1200.00" end="1249.50" id="1_actuated_program_D11.3" nVehContrib="0" flow="0.00" occupancy="0.00" speed="-1.00" harmonicMeanSpeed="-1.00" length="-1.00" nVehEntered="0"/>
</detector>
