<?xml version="1.0" encoding="UTF-8"?>

<!-- generated on 2025-06-27 16:36:45 by Eclipse SUMO GUI Version 1.22.0
<sumoConfiguration xmlns:xsi="http://www.w3.org/2001/XMLSchema-instance" xsi:noNamespaceSchemaLocation="http://sumo.dlr.de/xsd/sumoConfiguration.xsd">

    <input>
        <net-file value="/home/naderian/Desktop/Shakiba/MMSVCC/environment/network_model/single_intersection_Concurrent_(delayed_turn).net.xml"/>
        <route-files value="/home/naderian/Desktop/Shakiba/MMSVCC/environment/network_model/single_intersection.rou.xml"/>
        <additional-files value="/home/naderian/Desktop/Shakiba/MMSVCC/environment/network_model/single_intersection.add_actuated_(delayed_turn).xml"/>
    </input>

    <output>
        <queue-output value="/home/naderian/Desktop/Shakiba/MMSVCC/environment/simulation_data/single_intersection/queues_actuated_asymmetric_pene_100.xml"/>
        <tripinfo-output value="/home/naderian/Desktop/Shakiba/MMSVCC/environment/simulation_data/single_intersection/tripinfo_actuated_asymmetric_pene_100.xml"/>
    </output>

    <time>
        <begin value="0"/>
        <step-length value="0.5"/>
    </time>

    <processing>
        <waiting-time-memory value="1000"/>
    </processing>

    <report>
        <verbose value="true"/>
        <no-step-log value="true"/>
    </report>

    <ssm_device>
        <device.ssm.file value="/home/naderian/Desktop/Shakiba/MMSVCC/environment/simulation_data/single_intersection/SSMinfo_actuated_pene_100.xml"/>
    </ssm_device>

    <traci_server>
        <remote-port value="53755"/>
    </traci_server>

    <gui_only>
        <start value="true"/>
    </gui_only>

</sumoConfiguration>
-->

<detector xmlns:xsi="http://www.w3.org/2001/XMLSchema-instance" xsi:noNamespaceSchemaLocation="http://sumo.dlr.de/xsd/det_e1_file.xsd">
    <interval begin="0.00" end="300.00" id="1_actuated_program_D0.0" nVehContrib="7" flow="84.00" occupancy="0.98" speed="11.87" harmonicMeanSpeed="11.87" length="5.00" nVehEntered="7"/>
    <interval begin="0.00" end="300.00" id="1_actuated_program_D0.1" nVehContrib="24" flow="288.00" occupancy="14.42" speed="9.70" harmonicMeanSpeed="2.92" length="5.00" nVehEntered="25"/>
    <interval begin="0.00" end="300.00" id="1_actuated_program_D0.2" nVehContrib="2" flow="24.00" occupancy="0.27" speed="12.31" harmonicMeanSpeed="12.30" length="5.00" nVehEntered="2"/>
    <interval begin="0.00" end="300.00" id="1_actuated_program_D1.0" nVehContrib="5" flow="60.00" occupancy="0.69" speed="12.12" harmonicMeanSpeed="12.09" length="5.00" nVehEntered="5"/>
    <interval begin="0.00" end="300.00" id="1_actuated_program_D1.1" nVehContrib="27" flow="324.00" occupancy="26.13" speed="8.52" harmonicMeanSpeed="1.72" length="5.00" nVehEntered="27"/>
    <interval begin="0.00" end="300.00" id="1_actuated_program_D1.2" nVehContrib="6" flow="72.00" occupancy="0.87" speed="11.69" harmonicMeanSpeed="11.43" length="5.00" nVehEntered="6"/>
    <interval begin="0.00" end="300.00" id="1_actuated_program_D2.0" nVehContrib="10" flow="120.00" occupancy="10.80" speed="10.46" harmonicMeanSpeed="9.73" length="5.00" nVehEntered="11"/>
    <interval begin="0.00" end="300.00" id="1_actuated_program_D2.1" nVehContrib="28" flow="336.00" occupancy="28.70" speed="8.37" harmonicMeanSpeed="1.92" length="5.00" nVehEntered="29"/>
    <interval begin="0.00" end="300.00" id="1_actuated_program_D2.2" nVehContrib="4" flow="48.00" occupancy="0.55" speed="12.05" harmonicMeanSpeed="12.03" length="5.00" nVehEntered="4"/>
    <interval begin="0.00" end="300.00" id="1_actuated_program_D3.0" nVehContrib="6" flow="72.00" occupancy="0.82" speed="12.20" harmonicMeanSpeed="12.19" length="5.00" nVehEntered="6"/>
    <interval begin="0.00" end="300.00" id="1_actuated_program_D3.1" nVehContrib="35" flow="420.00" occupancy="37.56" speed="7.81" harmonicMeanSpeed="1.55" length="5.00" nVehEntered="35"/>
    <interval begin="0.00" end="300.00" id="1_actuated_program_D3.2" nVehContrib="1" flow="12.00" occupancy="0.14" speed="11.98" harmonicMeanSpeed="11.98" length="5.00" nVehEntered="1"/>
    <interval begin="300.00" end="600.00" id="1_actuated_program_D0.0" nVehContrib="10" flow="120.00" occupancy="47.38" speed="5.32" harmonicMeanSpeed="0.35" length="5.00" nVehEntered="10"/>
    <interval begin="300.00" end="600.00" id="1_actuated_program_D0.1" nVehContrib="31" flow="372.00" occupancy="33.10" speed="7.18" harmonicMeanSpeed="1.53" length="5.00" nVehEntered="30"/>
    <interval begin="300.00" end="600.00" id="1_actuated_program_D0.2" nVehContrib="5" flow="60.00" occupancy="0.72" speed="11.65" harmonicMeanSpeed="11.52" length="5.00" nVehEntered="5"/>
    <interval begin="300.00" end="600.00" id="1_actuated_program_D1.0" nVehContrib="3" flow="36.00" occupancy="0.41" speed="12.28" harmonicMeanSpeed="12.27" length="5.00" nVehEntered="3"/>
    <interval begin="300.00" end="600.00" id="1_actuated_program_D1.1" nVehContrib="23" flow="276.00" occupancy="32.37" speed="9.53" harmonicMeanSpeed="2.37" length="5.00" nVehEntered="24"/>
    <interval begin="300.00" end="600.00" id="1_actuated_program_D1.2" nVehContrib="4" flow="48.00" occupancy="0.56" speed="11.98" harmonicMeanSpeed="11.97" length="5.00" nVehEntered="4"/>
    <interval begin="300.00" end="600.00" id="1_actuated_program_D2.0" nVehContrib="9" flow="108.00" occupancy="31.86" speed="1.90" harmonicMeanSpeed="0.37" length="5.00" nVehEntered="8"/>
    <interval begin="300.00" end="600.00" id="1_actuated_program_D2.1" nVehContrib="45" flow="540.00" occupancy="43.77" speed="8.16" harmonicMeanSpeed="1.56" length="5.00" nVehEntered="44"/>
    <interval begin="300.00" end="600.00" id="1_actuated_program_D2.2" nVehContrib="5" flow="60.00" occupancy="0.70" speed="11.97" harmonicMeanSpeed="11.97" length="5.00" nVehEntered="5"/>
    <interval begin="300.00" end="600.00" id="1_actuated_program_D3.0" nVehContrib="3" flow="36.00" occupancy="0.40" speed="12.44" harmonicMeanSpeed="12.43" length="5.00" nVehEntered="3"/>
    <interval begin="300.00" end="600.00" id="1_actuated_program_D3.1" nVehContrib="33" flow="396.00" occupancy="57.60" speed="8.02" harmonicMeanSpeed="1.29" length="5.00" nVehEntered="34"/>
    <interval begin="300.00" end="600.00" id="1_actuated_program_D3.2" nVehContrib="7" flow="84.00" occupancy="1.01" speed="11.66" harmonicMeanSpeed="11.53" length="5.00" nVehEntered="7"/>
    <interval begin="600.00" end="900.00" id="1_actuated_program_D0.0" nVehContrib="5" flow="60.00" occupancy="59.07" speed="4.02" harmonicMeanSpeed="0.16" length="5.00" nVehEntered="6"/>
    <interval begin="600.00" end="900.00" id="1_actuated_program_D0.1" nVehContrib="36" flow="432.00" occupancy="56.20" speed="8.39" harmonicMeanSpeed="1.07" length="5.00" nVehEntered="36"/>
    <interval begin="600.00" end="900.00" id="1_actuated_program_D0.2" nVehContrib="8" flow="96.00" occupancy="10.95" speed="10.56" harmonicMeanSpeed="10.01" length="5.00" nVehEntered="9"/>
    <interval begin="600.00" end="900.00" id="1_actuated_program_D1.0" nVehContrib="9" flow="108.00" occupancy="18.05" speed="8.57" harmonicMeanSpeed="3.93" length="5.00" nVehEntered="10"/>
    <interval begin="600.00" end="900.00" id="1_actuated_program_D1.1" nVehContrib="34" flow="408.00" occupancy="48.79" speed="8.76" harmonicMeanSpeed="1.03" length="5.00" nVehEntered="34"/>
    <interval begin="600.00" end="900.00" id="1_actuated_program_D1.2" nVehContrib="8" flow="96.00" occupancy="1.28" speed="10.91" harmonicMeanSpeed="10.38" length="5.00" nVehEntered="8"/>
    <interval begin="600.00" end="900.00" id="1_actuated_program_D2.0" nVehContrib="5" flow="60.00" occupancy="0.70" speed="11.95" harmonicMeanSpeed="11.94" length="5.00" nVehEntered="5"/>
    <interval begin="600.00" end="900.00" id="1_actuated_program_D2.1" nVehContrib="49" flow="588.00" occupancy="63.62" speed="9.38" harmonicMeanSpeed="1.28" length="5.00" nVehEntered="49"/>
    <interval begin="600.00" end="900.00" id="1_actuated_program_D2.2" nVehContrib="7" flow="84.00" occupancy="0.94" speed="12.39" harmonicMeanSpeed="12.38" length="5.00" nVehEntered="7"/>
    <interval begin="600.00" end="900.00" id="1_actuated_program_D3.0" nVehContrib="9" flow="108.00" occupancy="1.30" speed="11.69" harmonicMeanSpeed="11.57" length="5.00" nVehEntered="9"/>
    <interval begin="600.00" end="900.00" id="1_actuated_program_D3.1" nVehContrib="47" flow="564.00" occupancy="59.39" speed="9.63" harmonicMeanSpeed="1.22" length="5.00" nVehEntered="47"/>
    <interval begin="600.00" end="900.00" id="1_actuated_program_D3.2" nVehContrib="11" flow="132.00" occupancy="18.71" speed="7.61" harmonicMeanSpeed="0.98" length="5.00" nVehEntered="11"/>
    <interval begin="900.00" end="1153.00" id="1_actuated_program_D0.0" nVehContrib="5" flow="71.15" occupancy="42.55" speed="0.64" harmonicMeanSpeed="0.19" length="5.00" nVehEntered="4"/>
    <interval begin="900.00" end="1153.00" id="1_actuated_program_D0.1" nVehContrib="2" flow="28.46" occupancy="0.32" speed="12.53" harmonicMeanSpeed="12.53" length="5.00" nVehEntered="2"/>
    <interval begin="900.00" end="1153.00" id="1_actuated_program_D0.2" nVehContrib="1" flow="14.23" occupancy="10.17" speed="0.09" harmonicMeanSpeed="0.09" length="5.00" nVehEntered="0"/>
    <interval begin="900.00" end="1153.00" id="1_actuated_program_D1.0" nVehContrib="2" flow="28.46" occupancy="21.37" speed="0.34" harmonicMeanSpeed="0.10" length="5.00" nVehEntered="1"/>
    <interval begin="900.00" end="1153.00" id="1_actuated_program_D1.1" nVehContrib="7" flow="99.60" occupancy="17.91" speed="6.47" harmonicMeanSpeed="0.46" length="5.00" nVehEntered="6"/>
    <interval begin="900.00" end="1153.00" id="1_actuated_program_D1.2" nVehContrib="1" flow="14.23" occupancy="0.17" speed="11.30" harmonicMeanSpeed="11.30" length="5.00" nVehEntered="1"/>
    <interval begin="900.00" end="1153.00" id="1_actuated_program_D2.0" nVehContrib="0" flow="0.00" occupancy="0.00" speed="-1.00" harmonicMeanSpeed="-1.00" length="-1.00" nVehEntered="0"/>
    <interval begin="900.00" end="1153.00" id="1_actuated_program_D2.1" nVehContrib="15" flow="213.44" occupancy="32.47" speed="8.88" harmonicMeanSpeed="0.91" length="5.00" nVehEntered="15"/>
    <interval begin="900.00" end="1153.00" id="1_actuated_program_D2.2" nVehContrib="0" flow="0.00" occupancy="0.00" speed="-1.00" harmonicMeanSpeed="-1.00" length="-1.00" nVehEntered="0"/>
    <interval begin="900.00" end="1153.00" id="1_actuated_program_D3.0" nVehContrib="0" flow="0.00" occupancy="0.00" speed="-1.00" harmonicMeanSpeed="-1.00" length="-1.00" nVehEntered="0"/>
    <interval begin="900.00" end="1153.00" id="1_actuated_program_D3.1" nVehContrib="12" flow="170.75" occupancy="18.96" speed="8.09" harmonicMeanSpeed="0.76" length="5.00" nVehEntered="11"/>
    <interval begin="900.00" end="1153.00" id="1_actuated_program_D3.2" nVehContrib="1" flow="14.23" occupancy="0.16" speed="12.45" harmonicMeanSpeed="12.45" length="5.00" nVehEntered="1"/>
</detector>
