<?xml version="1.0" encoding="UTF-8"?>

<!-- generated on 2025-03-21 19:14:48 by Eclipse SUMO GUI Version 1.20.0
<configuration xmlns:xsi="http://www.w3.org/2001/XMLSchema-instance" xsi:noNamespaceSchemaLocation="http://sumo.dlr.de/xsd/sumoConfiguration.xsd">

    <input>
        <net-file value="/home/naderian/Desktop/Shakiba/MMSVCC/environment/network_model/single_intersection_pedestrian_X.net.xml"/>
        <route-files value="/home/naderian/Desktop/Shakiba/MMSVCC/environment/network_model/single_intersection.rou.xml"/>
        <additional-files value="/home/naderian/Desktop/Shakiba/MMSVCC/environment/network_model/single_intersection.add_actuated.xml"/>
    </input>

    <output>
        <queue-output value="/home/naderian/Desktop/Shakiba/MMSVCC/environment/simulation_data/single_intersection/queues_actuated_asymmetric_pene_100.xml"/>
        <tripinfo-output value="/home/naderian/Desktop/Shakiba/MMSVCC/environment/simulation_data/single_intersection/tripinfo_actuated_asymmetric_pene_100.xml"/>
    </output>

    <time>
        <begin value="0"/>
        <step-length value="0.5"/>
    </time>

    <processing>
        <waiting-time-memory value="1000"/>
    </processing>

    <report>
        <verbose value="true"/>
        <no-step-log value="true"/>
    </report>

    <traci_server>
        <remote-port value="52591"/>
    </traci_server>

    <gui_only>
        <start value="true"/>
    </gui_only>

</configuration>
-->

<detector xmlns:xsi="http://www.w3.org/2001/XMLSchema-instance" xsi:noNamespaceSchemaLocation="http://sumo.dlr.de/xsd/det_e1_file.xsd">
    <interval begin="0.00" end="300.00" id="1_actuated_program_D0.0" nVehContrib="17" flow="204.00" occupancy="2.58" speed="11.60" harmonicMeanSpeed="10.99" length="5.00" nVehEntered="17"/>
    <interval begin="0.00" end="300.00" id="1_actuated_program_D0.1" nVehContrib="8" flow="96.00" occupancy="1.15" speed="11.79" harmonicMeanSpeed="11.63" length="5.00" nVehEntered="8"/>
    <interval begin="0.00" end="300.00" id="1_actuated_program_D0.2" nVehContrib="4" flow="48.00" occupancy="0.55" speed="12.22" harmonicMeanSpeed="12.21" length="5.00" nVehEntered="4"/>
    <interval begin="0.00" end="300.00" id="1_actuated_program_D1.0" nVehContrib="15" flow="180.00" occupancy="2.12" speed="11.88" harmonicMeanSpeed="11.79" length="5.00" nVehEntered="15"/>
    <interval begin="0.00" end="300.00" id="1_actuated_program_D1.1" nVehContrib="5" flow="60.00" occupancy="0.84" speed="10.39" harmonicMeanSpeed="9.88" length="5.00" nVehEntered="5"/>
    <interval begin="0.00" end="300.00" id="1_actuated_program_D1.2" nVehContrib="2" flow="24.00" occupancy="0.28" speed="12.06" harmonicMeanSpeed="12.05" length="5.00" nVehEntered="2"/>
    <interval begin="0.00" end="300.00" id="1_actuated_program_D2.0" nVehContrib="24" flow="288.00" occupancy="7.96" speed="10.01" harmonicMeanSpeed="5.03" length="5.00" nVehEntered="24"/>
    <interval begin="0.00" end="300.00" id="1_actuated_program_D2.1" nVehContrib="17" flow="204.00" occupancy="9.59" speed="8.86" harmonicMeanSpeed="2.96" length="5.00" nVehEntered="17"/>
    <interval begin="0.00" end="300.00" id="1_actuated_program_D2.2" nVehContrib="4" flow="48.00" occupancy="0.54" speed="12.46" harmonicMeanSpeed="12.45" length="5.00" nVehEntered="4"/>
    <interval begin="0.00" end="300.00" id="1_actuated_program_D3.0" nVehContrib="22" flow="264.00" occupancy="18.74" speed="7.21" harmonicMeanSpeed="1.96" length="5.00" nVehEntered="22"/>
    <interval begin="0.00" end="300.00" id="1_actuated_program_D3.1" nVehContrib="23" flow="276.00" occupancy="19.29" speed="7.61" harmonicMeanSpeed="2.08" length="5.00" nVehEntered="24"/>
    <interval begin="0.00" end="300.00" id="1_actuated_program_D3.2" nVehContrib="4" flow="48.00" occupancy="0.55" speed="12.12" harmonicMeanSpeed="12.10" length="5.00" nVehEntered="4"/>
    <interval begin="300.00" end="600.00" id="1_actuated_program_D0.0" nVehContrib="12" flow="144.00" occupancy="1.71" speed="11.78" harmonicMeanSpeed="11.67" length="5.00" nVehEntered="12"/>
    <interval begin="300.00" end="600.00" id="1_actuated_program_D0.1" nVehContrib="11" flow="132.00" occupancy="1.60" speed="11.64" harmonicMeanSpeed="11.48" length="5.00" nVehEntered="11"/>
    <interval begin="300.00" end="600.00" id="1_actuated_program_D0.2" nVehContrib="2" flow="24.00" occupancy="0.26" speed="12.74" harmonicMeanSpeed="12.74" length="5.00" nVehEntered="2"/>
    <interval begin="300.00" end="600.00" id="1_actuated_program_D1.0" nVehContrib="15" flow="180.00" occupancy="6.50" speed="10.80" harmonicMeanSpeed="3.85" length="5.00" nVehEntered="15"/>
    <interval begin="300.00" end="600.00" id="1_actuated_program_D1.1" nVehContrib="11" flow="132.00" occupancy="8.26" speed="8.96" harmonicMeanSpeed="2.22" length="5.00" nVehEntered="11"/>
    <interval begin="300.00" end="600.00" id="1_actuated_program_D1.2" nVehContrib="6" flow="72.00" occupancy="0.81" speed="12.36" harmonicMeanSpeed="12.35" length="5.00" nVehEntered="6"/>
    <interval begin="300.00" end="600.00" id="1_actuated_program_D2.0" nVehContrib="14" flow="168.00" occupancy="25.11" speed="4.98" harmonicMeanSpeed="1.03" length="5.00" nVehEntered="16"/>
    <interval begin="300.00" end="600.00" id="1_actuated_program_D2.1" nVehContrib="29" flow="348.00" occupancy="38.98" speed="6.58" harmonicMeanSpeed="1.44" length="5.00" nVehEntered="32"/>
    <interval begin="300.00" end="600.00" id="1_actuated_program_D2.2" nVehContrib="2" flow="24.00" occupancy="0.28" speed="11.79" harmonicMeanSpeed="11.79" length="5.00" nVehEntered="2"/>
    <interval begin="300.00" end="600.00" id="1_actuated_program_D3.0" nVehContrib="24" flow="288.00" occupancy="4.71" speed="11.22" harmonicMeanSpeed="8.50" length="5.00" nVehEntered="24"/>
    <interval begin="300.00" end="600.00" id="1_actuated_program_D3.1" nVehContrib="14" flow="168.00" occupancy="6.24" speed="8.76" harmonicMeanSpeed="7.89" length="5.00" nVehEntered="15"/>
    <interval begin="300.00" end="600.00" id="1_actuated_program_D3.2" nVehContrib="9" flow="108.00" occupancy="1.29" speed="11.77" harmonicMeanSpeed="11.65" length="5.00" nVehEntered="9"/>
    <interval begin="600.00" end="900.00" id="1_actuated_program_D0.0" nVehContrib="21" flow="252.00" occupancy="8.68" speed="10.23" harmonicMeanSpeed="4.08" length="5.00" nVehEntered="22"/>
    <interval begin="600.00" end="900.00" id="1_actuated_program_D0.1" nVehContrib="14" flow="168.00" occupancy="16.26" speed="7.82" harmonicMeanSpeed="1.43" length="5.00" nVehEntered="14"/>
    <interval begin="600.00" end="900.00" id="1_actuated_program_D0.2" nVehContrib="12" flow="144.00" occupancy="11.15" speed="10.16" harmonicMeanSpeed="1.79" length="5.00" nVehEntered="12"/>
    <interval begin="600.00" end="900.00" id="1_actuated_program_D1.0" nVehContrib="15" flow="180.00" occupancy="2.40" speed="11.12" harmonicMeanSpeed="10.41" length="5.00" nVehEntered="15"/>
    <interval begin="600.00" end="900.00" id="1_actuated_program_D1.1" nVehContrib="10" flow="120.00" occupancy="1.58" speed="11.75" harmonicMeanSpeed="11.52" length="5.00" nVehEntered="11"/>
    <interval begin="600.00" end="900.00" id="1_actuated_program_D1.2" nVehContrib="4" flow="48.00" occupancy="0.53" speed="12.59" harmonicMeanSpeed="12.59" length="5.00" nVehEntered="4"/>
    <interval begin="600.00" end="900.00" id="1_actuated_program_D2.0" nVehContrib="24" flow="288.00" occupancy="12.80" speed="10.24" harmonicMeanSpeed="2.79" length="5.00" nVehEntered="23"/>
    <interval begin="600.00" end="900.00" id="1_actuated_program_D2.1" nVehContrib="22" flow="264.00" occupancy="14.51" speed="7.59" harmonicMeanSpeed="2.12" length="5.00" nVehEntered="22"/>
    <interval begin="600.00" end="900.00" id="1_actuated_program_D2.2" nVehContrib="2" flow="24.00" occupancy="0.28" speed="12.08" harmonicMeanSpeed="12.07" length="5.00" nVehEntered="2"/>
    <interval begin="600.00" end="900.00" id="1_actuated_program_D3.0" nVehContrib="32" flow="384.00" occupancy="36.93" speed="7.23" harmonicMeanSpeed="1.44" length="5.00" nVehEntered="32"/>
    <interval begin="600.00" end="900.00" id="1_actuated_program_D3.1" nVehContrib="36" flow="432.00" occupancy="41.02" speed="7.97" harmonicMeanSpeed="1.76" length="5.00" nVehEntered="38"/>
    <interval begin="600.00" end="900.00" id="1_actuated_program_D3.2" nVehContrib="7" flow="84.00" occupancy="0.99" speed="11.90" harmonicMeanSpeed="11.82" length="5.00" nVehEntered="7"/>
    <interval begin="900.00" end="1115.00" id="1_actuated_program_D0.0" nVehContrib="1" flow="16.74" occupancy="0.18" speed="12.90" harmonicMeanSpeed="12.90" length="5.00" nVehEntered="1"/>
    <interval begin="900.00" end="1115.00" id="1_actuated_program_D0.1" nVehContrib="0" flow="0.00" occupancy="0.00" speed="-1.00" harmonicMeanSpeed="-1.00" length="-1.00" nVehEntered="0"/>
    <interval begin="900.00" end="1115.00" id="1_actuated_program_D0.2" nVehContrib="1" flow="16.74" occupancy="0.20" speed="11.72" harmonicMeanSpeed="11.72" length="5.00" nVehEntered="1"/>
    <interval begin="900.00" end="1115.00" id="1_actuated_program_D1.0" nVehContrib="0" flow="0.00" occupancy="0.00" speed="-1.00" harmonicMeanSpeed="-1.00" length="-1.00" nVehEntered="0"/>
    <interval begin="900.00" end="1115.00" id="1_actuated_program_D1.1" nVehContrib="2" flow="33.49" occupancy="0.50" speed="7.23" harmonicMeanSpeed="6.76" length="5.00" nVehEntered="1"/>
    <interval begin="900.00" end="1115.00" id="1_actuated_program_D1.2" nVehContrib="0" flow="0.00" occupancy="0.00" speed="-1.00" harmonicMeanSpeed="-1.00" length="-1.00" nVehEntered="0"/>
    <interval begin="900.00" end="1115.00" id="1_actuated_program_D2.0" nVehContrib="1" flow="16.74" occupancy="0.21" speed="10.92" harmonicMeanSpeed="10.92" length="5.00" nVehEntered="1"/>
    <interval begin="900.00" end="1115.00" id="1_actuated_program_D2.1" nVehContrib="0" flow="0.00" occupancy="0.00" speed="-1.00" harmonicMeanSpeed="-1.00" length="-1.00" nVehEntered="0"/>
    <interval begin="900.00" end="1115.00" id="1_actuated_program_D2.2" nVehContrib="0" flow="0.00" occupancy="0.00" speed="-1.00" harmonicMeanSpeed="-1.00" length="-1.00" nVehEntered="0"/>
    <interval begin="900.00" end="1115.00" id="1_actuated_program_D3.0" nVehContrib="2" flow="33.49" occupancy="2.80" speed="2.52" harmonicMeanSpeed="1.66" length="5.00" nVehEntered="2"/>
    <interval begin="900.00" end="1115.00" id="1_actuated_program_D3.1" nVehContrib="2" flow="33.49" occupancy="7.23" speed="2.05" harmonicMeanSpeed="1.11" length="5.00" nVehEntered="2"/>
    <interval begin="900.00" end="1115.00" id="1_actuated_program_D3.2" nVehContrib="0" flow="0.00" occupancy="0.00" speed="-1.00" harmonicMeanSpeed="-1.00" length="-1.00" nVehEntered="0"/>
</detector>
