<?xml version="1.0" encoding="UTF-8"?>

<!-- generated on 2025-04-16 13:40:02 by Eclipse SUMO GUI Version 1.22.0
<sumoConfiguration xmlns:xsi="http://www.w3.org/2001/XMLSchema-instance" xsi:noNamespaceSchemaLocation="http://sumo.dlr.de/xsd/sumoConfiguration.xsd">

    <input>
        <net-file value="/home/naderian/Desktop/Shakiba/Shakiba97(Multiscale-Traffic-Control)/SourceCodes/environment/network_model/single_intersection_bike.net.xml"/>
        <route-files value="/home/naderian/Desktop/Shakiba/Shakiba97(Multiscale-Traffic-Control)/SourceCodes/environment/network_model/single_intersection.rou.xml"/>
        <additional-files value="/home/naderian/Desktop/Shakiba/Shakiba97(Multiscale-Traffic-Control)/SourceCodes/environment/network_model/single_intersection.add_actuated.xml"/>
    </input>

    <output>
        <queue-output value="/home/naderian/Desktop/Shakiba/Shakiba97(Multiscale-Traffic-Control)/SourceCodes/environment/simulation_data/single_intersection/queues_actuated_symmetric_pene_100.xml"/>
        <tripinfo-output value="/home/naderian/Desktop/Shakiba/Shakiba97(Multiscale-Traffic-Control)/SourceCodes/environment/simulation_data/single_intersection/tripinfo_actuated_symmetric_pene_100.xml"/>
    </output>

    <time>
        <begin value="0"/>
        <step-length value="0.5"/>
    </time>

    <processing>
        <waiting-time-memory value="1000"/>
    </processing>

    <report>
        <verbose value="true"/>
        <no-step-log value="true"/>
    </report>

    <traci_server>
        <remote-port value="53021"/>
    </traci_server>

    <gui_only>
        <start value="true"/>
    </gui_only>

</sumoConfiguration>
-->

<detector xmlns:xsi="http://www.w3.org/2001/XMLSchema-instance" xsi:noNamespaceSchemaLocation="http://sumo.dlr.de/xsd/det_e1_file.xsd">
    <interval begin="0.00" end="300.00" id="1_actuated_program_D0.0" nVehContrib="12" flow="144.00" occupancy="1.42" speed="4.69" harmonicMeanSpeed="4.50" length="1.60" nVehEntered="12"/>
    <interval begin="0.00" end="300.00" id="1_actuated_program_D0.1" nVehContrib="24" flow="288.00" occupancy="5.80" speed="10.11" harmonicMeanSpeed="7.34" length="5.00" nVehEntered="26"/>
    <interval begin="0.00" end="300.00" id="1_actuated_program_D0.2" nVehContrib="17" flow="204.00" occupancy="11.78" speed="8.70" harmonicMeanSpeed="4.11" length="5.00" nVehEntered="19"/>
    <interval begin="0.00" end="300.00" id="1_actuated_program_D0.3" nVehContrib="6" flow="72.00" occupancy="0.86" speed="11.67" harmonicMeanSpeed="11.58" length="5.00" nVehEntered="6"/>
    <interval begin="0.00" end="300.00" id="1_actuated_program_D1.0" nVehContrib="13" flow="156.00" occupancy="1.49" speed="4.75" harmonicMeanSpeed="4.64" length="1.60" nVehEntered="13"/>
    <interval begin="0.00" end="300.00" id="1_actuated_program_D1.1" nVehContrib="20" flow="240.00" occupancy="14.24" speed="9.71" harmonicMeanSpeed="2.34" length="5.00" nVehEntered="20"/>
    <interval begin="0.00" end="300.00" id="1_actuated_program_D1.2" nVehContrib="16" flow="192.00" occupancy="14.92" speed="8.97" harmonicMeanSpeed="1.79" length="5.00" nVehEntered="16"/>
    <interval begin="0.00" end="300.00" id="1_actuated_program_D1.3" nVehContrib="6" flow="72.00" occupancy="0.82" speed="12.18" harmonicMeanSpeed="12.17" length="5.00" nVehEntered="6"/>
    <interval begin="0.00" end="300.00" id="1_actuated_program_D2.0" nVehContrib="4" flow="48.00" occupancy="0.38" speed="5.64" harmonicMeanSpeed="5.54" length="1.60" nVehEntered="4"/>
    <interval begin="0.00" end="300.00" id="1_actuated_program_D2.1" nVehContrib="22" flow="264.00" occupancy="10.08" speed="10.68" harmonicMeanSpeed="6.19" length="5.00" nVehEntered="23"/>
    <interval begin="0.00" end="300.00" id="1_actuated_program_D2.2" nVehContrib="19" flow="228.00" occupancy="10.34" speed="9.32" harmonicMeanSpeed="5.94" length="5.00" nVehEntered="20"/>
    <interval begin="0.00" end="300.00" id="1_actuated_program_D2.3" nVehContrib="6" flow="72.00" occupancy="0.84" speed="11.91" harmonicMeanSpeed="11.86" length="5.00" nVehEntered="6"/>
    <interval begin="0.00" end="300.00" id="1_actuated_program_D3.0" nVehContrib="29" flow="348.00" occupancy="6.46" speed="3.48" harmonicMeanSpeed="2.39" length="1.60" nVehEntered="29"/>
    <interval begin="0.00" end="300.00" id="1_actuated_program_D3.1" nVehContrib="19" flow="228.00" occupancy="5.00" speed="8.30" harmonicMeanSpeed="5.49" length="4.28" nVehEntered="20"/>
    <interval begin="0.00" end="300.00" id="1_actuated_program_D3.2" nVehContrib="27" flow="324.00" occupancy="13.08" speed="8.90" harmonicMeanSpeed="3.98" length="5.00" nVehEntered="29"/>
    <interval begin="0.00" end="300.00" id="1_actuated_program_D3.3" nVehContrib="6" flow="72.00" occupancy="0.83" speed="12.13" harmonicMeanSpeed="12.10" length="5.00" nVehEntered="6"/>
    <interval begin="300.00" end="600.00" id="1_actuated_program_D0.0" nVehContrib="12" flow="144.00" occupancy="3.15" speed="4.09" harmonicMeanSpeed="2.03" length="1.60" nVehEntered="12"/>
    <interval begin="300.00" end="600.00" id="1_actuated_program_D0.1" nVehContrib="18" flow="216.00" occupancy="44.33" speed="4.18" harmonicMeanSpeed="0.67" length="4.81" nVehEntered="17"/>
    <interval begin="300.00" end="600.00" id="1_actuated_program_D0.2" nVehContrib="36" flow="432.00" occupancy="35.14" speed="7.14" harmonicMeanSpeed="1.69" length="4.91" nVehEntered="36"/>
    <interval begin="300.00" end="600.00" id="1_actuated_program_D0.3" nVehContrib="8" flow="96.00" occupancy="2.94" speed="9.51" harmonicMeanSpeed="4.54" length="5.00" nVehEntered="8"/>
    <interval begin="300.00" end="600.00" id="1_actuated_program_D1.0" nVehContrib="20" flow="240.00" occupancy="5.16" speed="3.63" harmonicMeanSpeed="2.07" length="1.60" nVehEntered="20"/>
    <interval begin="300.00" end="600.00" id="1_actuated_program_D1.1" nVehContrib="21" flow="252.00" occupancy="5.93" speed="9.20" harmonicMeanSpeed="7.72" length="4.68" nVehEntered="23"/>
    <interval begin="300.00" end="600.00" id="1_actuated_program_D1.2" nVehContrib="16" flow="192.00" occupancy="8.58" speed="9.74" harmonicMeanSpeed="9.03" length="5.00" nVehEntered="19"/>
    <interval begin="300.00" end="600.00" id="1_actuated_program_D1.3" nVehContrib="2" flow="24.00" occupancy="0.28" speed="11.97" harmonicMeanSpeed="11.95" length="5.00" nVehEntered="2"/>
    <interval begin="300.00" end="600.00" id="1_actuated_program_D2.0" nVehContrib="7" flow="84.00" occupancy="0.71" speed="5.30" harmonicMeanSpeed="5.25" length="1.60" nVehEntered="7"/>
    <interval begin="300.00" end="600.00" id="1_actuated_program_D2.1" nVehContrib="28" flow="336.00" occupancy="21.60" speed="8.65" harmonicMeanSpeed="1.81" length="5.00" nVehEntered="27"/>
    <interval begin="300.00" end="600.00" id="1_actuated_program_D2.2" nVehContrib="20" flow="240.00" occupancy="15.81" speed="7.44" harmonicMeanSpeed="1.60" length="5.00" nVehEntered="19"/>
    <interval begin="300.00" end="600.00" id="1_actuated_program_D2.3" nVehContrib="5" flow="60.00" occupancy="0.73" speed="11.55" harmonicMeanSpeed="11.44" length="5.00" nVehEntered="5"/>
    <interval begin="300.00" end="600.00" id="1_actuated_program_D3.0" nVehContrib="30" flow="360.00" occupancy="12.76" speed="3.43" harmonicMeanSpeed="1.25" length="1.60" nVehEntered="30"/>
    <interval begin="300.00" end="600.00" id="1_actuated_program_D3.1" nVehContrib="19" flow="228.00" occupancy="13.46" speed="7.28" harmonicMeanSpeed="2.80" length="3.93" nVehEntered="22"/>
    <interval begin="300.00" end="600.00" id="1_actuated_program_D3.2" nVehContrib="29" flow="348.00" occupancy="25.04" speed="8.65" harmonicMeanSpeed="3.46" length="5.00" nVehEntered="32"/>
    <interval begin="300.00" end="600.00" id="1_actuated_program_D3.3" nVehContrib="4" flow="48.00" occupancy="0.53" speed="12.55" harmonicMeanSpeed="12.55" length="5.00" nVehEntered="4"/>
    <interval begin="600.00" end="900.00" id="1_actuated_program_D0.0" nVehContrib="11" flow="132.00" occupancy="1.34" speed="4.54" harmonicMeanSpeed="4.38" length="1.60" nVehEntered="11"/>
    <interval begin="600.00" end="900.00" id="1_actuated_program_D0.1" nVehContrib="21" flow="252.00" occupancy="37.91" speed="4.31" harmonicMeanSpeed="0.92" length="4.68" nVehEntered="22"/>
    <interval begin="600.00" end="900.00" id="1_actuated_program_D0.2" nVehContrib="38" flow="456.00" occupancy="46.02" speed="6.69" harmonicMeanSpeed="1.38" length="5.00" nVehEntered="39"/>
    <interval begin="600.00" end="900.00" id="1_actuated_program_D0.3" nVehContrib="9" flow="108.00" occupancy="11.34" speed="7.36" harmonicMeanSpeed="1.32" length="5.00" nVehEntered="9"/>
    <interval begin="600.00" end="900.00" id="1_actuated_program_D1.0" nVehContrib="27" flow="324.00" occupancy="5.94" speed="3.61" harmonicMeanSpeed="2.42" length="1.60" nVehEntered="27"/>
    <interval begin="600.00" end="900.00" id="1_actuated_program_D1.1" nVehContrib="27" flow="324.00" occupancy="38.87" speed="5.16" harmonicMeanSpeed="1.09" length="4.50" nVehEntered="27"/>
    <interval begin="600.00" end="900.00" id="1_actuated_program_D1.2" nVehContrib="34" flow="408.00" occupancy="42.49" speed="7.24" harmonicMeanSpeed="1.24" length="5.00" nVehEntered="34"/>
    <interval begin="600.00" end="900.00" id="1_actuated_program_D1.3" nVehContrib="9" flow="108.00" occupancy="1.42" speed="11.22" harmonicMeanSpeed="10.58" length="5.00" nVehEntered="9"/>
    <interval begin="600.00" end="900.00" id="1_actuated_program_D2.0" nVehContrib="4" flow="48.00" occupancy="0.42" speed="5.14" harmonicMeanSpeed="5.10" length="1.60" nVehEntered="4"/>
    <interval begin="600.00" end="900.00" id="1_actuated_program_D2.1" nVehContrib="33" flow="396.00" occupancy="38.51" speed="8.77" harmonicMeanSpeed="1.49" length="5.00" nVehEntered="36"/>
    <interval begin="600.00" end="900.00" id="1_actuated_program_D2.2" nVehContrib="30" flow="360.00" occupancy="28.16" speed="7.64" harmonicMeanSpeed="1.78" length="5.00" nVehEntered="30"/>
    <interval begin="600.00" end="900.00" id="1_actuated_program_D2.3" nVehContrib="9" flow="108.00" occupancy="1.41" speed="11.10" harmonicMeanSpeed="10.60" length="5.00" nVehEntered="9"/>
    <interval begin="600.00" end="900.00" id="1_actuated_program_D3.0" nVehContrib="39" flow="468.00" occupancy="9.80" speed="3.17" harmonicMeanSpeed="2.12" length="1.60" nVehEntered="39"/>
    <interval begin="600.00" end="900.00" id="1_actuated_program_D3.1" nVehContrib="14" flow="168.00" occupancy="71.77" speed="1.77" harmonicMeanSpeed="0.33" length="5.00" nVehEntered="14"/>
    <interval begin="600.00" end="900.00" id="1_actuated_program_D3.2" nVehContrib="36" flow="432.00" occupancy="64.91" speed="6.33" harmonicMeanSpeed="0.81" length="5.00" nVehEntered="35"/>
    <interval begin="600.00" end="900.00" id="1_actuated_program_D3.3" nVehContrib="9" flow="108.00" occupancy="1.34" speed="11.37" harmonicMeanSpeed="11.18" length="5.00" nVehEntered="9"/>
    <interval begin="900.00" end="1154.00" id="1_actuated_program_D0.0" nVehContrib="0" flow="0.00" occupancy="0.00" speed="-1.00" harmonicMeanSpeed="-1.00" length="-1.00" nVehEntered="0"/>
    <interval begin="900.00" end="1154.00" id="1_actuated_program_D0.1" nVehContrib="2" flow="28.35" occupancy="0.38" speed="8.07" harmonicMeanSpeed="7.63" length="5.00" nVehEntered="1"/>
    <interval begin="900.00" end="1154.00" id="1_actuated_program_D0.2" nVehContrib="1" flow="14.17" occupancy="0.20" speed="9.62" harmonicMeanSpeed="9.62" length="5.00" nVehEntered="1"/>
    <interval begin="900.00" end="1154.00" id="1_actuated_program_D0.3" nVehContrib="0" flow="0.00" occupancy="0.00" speed="-1.00" harmonicMeanSpeed="-1.00" length="-1.00" nVehEntered="0"/>
    <interval begin="900.00" end="1154.00" id="1_actuated_program_D1.0" nVehContrib="4" flow="56.69" occupancy="0.57" speed="4.62" harmonicMeanSpeed="4.42" length="1.60" nVehEntered="4"/>
    <interval begin="900.00" end="1154.00" id="1_actuated_program_D1.1" nVehContrib="3" flow="42.52" occupancy="6.73" speed="3.90" harmonicMeanSpeed="3.86" length="5.00" nVehEntered="4"/>
    <interval begin="900.00" end="1154.00" id="1_actuated_program_D1.2" nVehContrib="10" flow="141.73" occupancy="2.93" speed="7.48" harmonicMeanSpeed="6.71" length="5.00" nVehEntered="10"/>
    <interval begin="900.00" end="1154.00" id="1_actuated_program_D1.3" nVehContrib="0" flow="0.00" occupancy="0.00" speed="-1.00" harmonicMeanSpeed="-1.00" length="-1.00" nVehEntered="0"/>
    <interval begin="900.00" end="1154.00" id="1_actuated_program_D2.0" nVehContrib="0" flow="0.00" occupancy="0.00" speed="-1.00" harmonicMeanSpeed="-1.00" length="-1.00" nVehEntered="0"/>
    <interval begin="900.00" end="1154.00" id="1_actuated_program_D2.1" nVehContrib="2" flow="28.35" occupancy="25.87" speed="1.23" harmonicMeanSpeed="0.14" length="5.00" nVehEntered="1"/>
    <interval begin="900.00" end="1154.00" id="1_actuated_program_D2.2" nVehContrib="0" flow="0.00" occupancy="0.00" speed="-1.00" harmonicMeanSpeed="-1.00" length="-1.00" nVehEntered="0"/>
    <interval begin="900.00" end="1154.00" id="1_actuated_program_D2.3" nVehContrib="0" flow="0.00" occupancy="0.00" speed="-1.00" harmonicMeanSpeed="-1.00" length="-1.00" nVehEntered="0"/>
    <interval begin="900.00" end="1154.00" id="1_actuated_program_D3.0" nVehContrib="6" flow="85.04" occupancy="0.88" speed="4.50" harmonicMeanSpeed="4.29" length="1.60" nVehEntered="6"/>
    <interval begin="900.00" end="1154.00" id="1_actuated_program_D3.1" nVehContrib="10" flow="141.73" occupancy="31.92" speed="3.13" harmonicMeanSpeed="0.52" length="5.00" nVehEntered="9"/>
    <interval begin="900.00" end="1154.00" id="1_actuated_program_D3.2" nVehContrib="17" flow="240.94" occupancy="5.04" speed="6.71" harmonicMeanSpeed="6.07" length="4.60" nVehEntered="17"/>
    <interval begin="900.00" end="1154.00" id="1_actuated_program_D3.3" nVehContrib="0" flow="0.00" occupancy="0.00" speed="-1.00" harmonicMeanSpeed="-1.00" length="-1.00" nVehEntered="0"/>
</detector>
