<?xml version="1.0" encoding="UTF-8"?>

<!-- generated on 2025-03-12 14:53:19 by Eclipse SUMO GUI Version 1.20.0
<configuration xmlns:xsi="http://www.w3.org/2001/XMLSchema-instance" xsi:noNamespaceSchemaLocation="http://sumo.dlr.de/xsd/sumoConfiguration.xsd">

    <input>
        <net-file value="/home/naderian/Desktop/Shakiba/MMSVCC/environment/network_model/single_intersection_pedestrian_X.net.xml"/>
        <route-files value="/home/naderian/Desktop/Shakiba/MMSVCC/environment/network_model/single_intersection.rou.xml"/>
        <additional-files value="/home/naderian/Desktop/Shakiba/MMSVCC/environment/network_model/single_intersection.add_actuated.xml"/>
    </input>

    <output>
        <queue-output value="/home/naderian/Desktop/Shakiba/MMSVCC/environment/simulation_data/single_intersection/queues_actuated_symmetric_pene_100.xml"/>
        <tripinfo-output value="/home/naderian/Desktop/Shakiba/MMSVCC/environment/simulation_data/single_intersection/tripinfo_actuated_symmetric_pene_100.xml"/>
    </output>

    <time>
        <begin value="0"/>
        <step-length value="0.5"/>
    </time>

    <processing>
        <waiting-time-memory value="1000"/>
    </processing>

    <report>
        <verbose value="true"/>
        <no-step-log value="true"/>
    </report>

    <traci_server>
        <remote-port value="56929"/>
    </traci_server>

    <gui_only>
        <start value="true"/>
    </gui_only>

</configuration>
-->

<detector xmlns:xsi="http://www.w3.org/2001/XMLSchema-instance" xsi:noNamespaceSchemaLocation="http://sumo.dlr.de/xsd/det_e1_file.xsd">
    <interval begin="0.00" end="190.50" id="1_actuated_program_D0.0" nVehContrib="11" flow="207.87" occupancy="2.51" speed="11.78" harmonicMeanSpeed="11.51" length="5.00" nVehEntered="11"/>
    <interval begin="0.00" end="190.50" id="1_actuated_program_D0.1" nVehContrib="4" flow="75.59" occupancy="0.95" speed="11.25" harmonicMeanSpeed="11.05" length="5.00" nVehEntered="4"/>
    <interval begin="0.00" end="190.50" id="1_actuated_program_D0.2" nVehContrib="0" flow="0.00" occupancy="0.00" speed="-1.00" harmonicMeanSpeed="-1.00" length="-1.00" nVehEntered="0"/>
    <interval begin="0.00" end="190.50" id="1_actuated_program_D1.0" nVehContrib="7" flow="132.28" occupancy="1.55" speed="11.90" harmonicMeanSpeed="11.88" length="5.00" nVehEntered="7"/>
    <interval begin="0.00" end="190.50" id="1_actuated_program_D1.1" nVehContrib="2" flow="37.80" occupancy="0.44" speed="11.85" harmonicMeanSpeed="11.85" length="5.00" nVehEntered="2"/>
    <interval begin="0.00" end="190.50" id="1_actuated_program_D1.2" nVehContrib="4" flow="75.59" occupancy="0.86" speed="12.20" harmonicMeanSpeed="12.19" length="5.00" nVehEntered="4"/>
    <interval begin="0.00" end="190.50" id="1_actuated_program_D2.0" nVehContrib="8" flow="151.18" occupancy="1.73" speed="12.14" harmonicMeanSpeed="12.13" length="5.00" nVehEntered="8"/>
    <interval begin="0.00" end="190.50" id="1_actuated_program_D2.1" nVehContrib="3" flow="56.69" occupancy="0.64" speed="12.40" harmonicMeanSpeed="12.40" length="5.00" nVehEntered="3"/>
    <interval begin="0.00" end="190.50" id="1_actuated_program_D2.2" nVehContrib="3" flow="56.69" occupancy="0.63" speed="12.48" harmonicMeanSpeed="12.48" length="5.00" nVehEntered="3"/>
    <interval begin="0.00" end="190.50" id="1_actuated_program_D3.0" nVehContrib="6" flow="113.39" occupancy="1.46" speed="12.12" harmonicMeanSpeed="12.10" length="5.00" nVehEntered="7"/>
    <interval begin="0.00" end="190.50" id="1_actuated_program_D3.1" nVehContrib="5" flow="94.49" occupancy="1.09" speed="12.08" harmonicMeanSpeed="12.04" length="5.00" nVehEntered="5"/>
    <interval begin="0.00" end="190.50" id="1_actuated_program_D3.2" nVehContrib="2" flow="37.80" occupancy="0.43" speed="12.21" harmonicMeanSpeed="12.17" length="5.00" nVehEntered="2"/>
</detector>
