<?xml version="1.0" encoding="UTF-8"?>

<!-- generated on 2025-02-27 20:52:20 by Eclipse SUMO GUI Version 1.20.0
<configuration xmlns:xsi="http://www.w3.org/2001/XMLSchema-instance" xsi:noNamespaceSchemaLocation="http://sumo.dlr.de/xsd/sumoConfiguration.xsd">

    <input>
        <net-file value="/home/naderian/Desktop/Shakiba/CET593/environment/network_model/single_intersection_pedestrian_X.net.xml"/>
        <route-files value="/home/naderian/Desktop/Shakiba/CET593/environment/network_model/single_intersection.rou.xml"/>
        <additional-files value="/home/naderian/Desktop/Shakiba/CET593/environment/network_model/single_intersection.add_actuated.xml"/>
    </input>

    <output>
        <queue-output value="/home/naderian/Desktop/Shakiba/CET593/environment/simulation_data/single_intersection/queues_actuated_symmetric_pene_100.xml"/>
        <tripinfo-output value="/home/naderian/Desktop/Shakiba/CET593/environment/simulation_data/single_intersection/tripinfo_actuated_symmetric_pene_100.xml"/>
    </output>

    <time>
        <begin value="0"/>
        <step-length value="0.5"/>
    </time>

    <processing>
        <waiting-time-memory value="1000"/>
    </processing>

    <report>
        <verbose value="true"/>
        <no-step-log value="true"/>
    </report>

    <traci_server>
        <remote-port value="58929"/>
    </traci_server>

    <gui_only>
        <start value="true"/>
    </gui_only>

</configuration>
-->

<detector xmlns:xsi="http://www.w3.org/2001/XMLSchema-instance" xsi:noNamespaceSchemaLocation="http://sumo.dlr.de/xsd/det_e1_file.xsd">
    <interval begin="0.00" end="300.00" id="1_actuated_program_D0.0" nVehContrib="17" flow="204.00" occupancy="2.51" speed="11.80" harmonicMeanSpeed="11.66" length="5.00" nVehEntered="18"/>
    <interval begin="0.00" end="300.00" id="1_actuated_program_D0.1" nVehContrib="10" flow="120.00" occupancy="1.43" speed="11.81" harmonicMeanSpeed="11.64" length="5.00" nVehEntered="10"/>
    <interval begin="0.00" end="300.00" id="1_actuated_program_D0.2" nVehContrib="3" flow="36.00" occupancy="0.40" speed="12.47" harmonicMeanSpeed="12.47" length="5.00" nVehEntered="3"/>
    <interval begin="0.00" end="300.00" id="1_actuated_program_D1.0" nVehContrib="15" flow="180.00" occupancy="2.08" speed="12.05" harmonicMeanSpeed="12.03" length="5.00" nVehEntered="15"/>
    <interval begin="0.00" end="300.00" id="1_actuated_program_D1.1" nVehContrib="6" flow="72.00" occupancy="0.83" speed="12.00" harmonicMeanSpeed="11.98" length="5.00" nVehEntered="6"/>
    <interval begin="0.00" end="300.00" id="1_actuated_program_D1.2" nVehContrib="7" flow="84.00" occupancy="1.01" speed="11.65" harmonicMeanSpeed="11.57" length="5.00" nVehEntered="7"/>
    <interval begin="0.00" end="300.00" id="1_actuated_program_D2.0" nVehContrib="18" flow="216.00" occupancy="2.52" speed="11.97" harmonicMeanSpeed="11.89" length="5.00" nVehEntered="18"/>
    <interval begin="0.00" end="300.00" id="1_actuated_program_D2.1" nVehContrib="5" flow="60.00" occupancy="0.68" speed="12.25" harmonicMeanSpeed="12.23" length="5.00" nVehEntered="5"/>
    <interval begin="0.00" end="300.00" id="1_actuated_program_D2.2" nVehContrib="4" flow="48.00" occupancy="0.53" speed="12.49" harmonicMeanSpeed="12.49" length="5.00" nVehEntered="4"/>
    <interval begin="0.00" end="300.00" id="1_actuated_program_D3.0" nVehContrib="17" flow="204.00" occupancy="2.36" speed="12.02" harmonicMeanSpeed="12.01" length="5.00" nVehEntered="17"/>
    <interval begin="0.00" end="300.00" id="1_actuated_program_D3.1" nVehContrib="5" flow="60.00" occupancy="0.68" speed="12.21" harmonicMeanSpeed="12.18" length="5.00" nVehEntered="5"/>
    <interval begin="0.00" end="300.00" id="1_actuated_program_D3.2" nVehContrib="2" flow="24.00" occupancy="0.28" speed="11.72" harmonicMeanSpeed="11.72" length="5.00" nVehEntered="2"/>
    <interval begin="300.00" end="531.00" id="1_actuated_program_D0.0" nVehContrib="14" flow="218.18" occupancy="2.71" speed="11.26" harmonicMeanSpeed="10.76" length="5.00" nVehEntered="13"/>
    <interval begin="300.00" end="531.00" id="1_actuated_program_D0.1" nVehContrib="9" flow="140.26" occupancy="5.13" speed="11.10" harmonicMeanSpeed="10.71" length="5.00" nVehEntered="11"/>
    <interval begin="300.00" end="531.00" id="1_actuated_program_D0.2" nVehContrib="4" flow="62.34" occupancy="0.73" speed="11.94" harmonicMeanSpeed="11.93" length="5.00" nVehEntered="4"/>
    <interval begin="300.00" end="531.00" id="1_actuated_program_D1.0" nVehContrib="8" flow="124.68" occupancy="1.44" speed="11.99" harmonicMeanSpeed="11.98" length="5.00" nVehEntered="8"/>
    <interval begin="300.00" end="531.00" id="1_actuated_program_D1.1" nVehContrib="9" flow="140.26" occupancy="1.77" speed="11.19" harmonicMeanSpeed="11.01" length="5.00" nVehEntered="9"/>
    <interval begin="300.00" end="531.00" id="1_actuated_program_D1.2" nVehContrib="3" flow="46.75" occupancy="0.57" speed="11.54" harmonicMeanSpeed="11.34" length="5.00" nVehEntered="3"/>
    <interval begin="300.00" end="531.00" id="1_actuated_program_D2.0" nVehContrib="9" flow="140.26" occupancy="1.74" speed="11.42" harmonicMeanSpeed="11.20" length="5.00" nVehEntered="9"/>
    <interval begin="300.00" end="531.00" id="1_actuated_program_D2.1" nVehContrib="12" flow="187.01" occupancy="4.61" speed="10.10" harmonicMeanSpeed="9.69" length="5.00" nVehEntered="14"/>
    <interval begin="300.00" end="531.00" id="1_actuated_program_D2.2" nVehContrib="9" flow="140.26" occupancy="1.62" speed="12.13" harmonicMeanSpeed="12.04" length="5.00" nVehEntered="9"/>
    <interval begin="300.00" end="531.00" id="1_actuated_program_D3.0" nVehContrib="9" flow="140.26" occupancy="1.85" speed="10.78" harmonicMeanSpeed="10.53" length="5.00" nVehEntered="9"/>
    <interval begin="300.00" end="531.00" id="1_actuated_program_D3.1" nVehContrib="15" flow="233.77" occupancy="3.71" speed="9.81" harmonicMeanSpeed="8.76" length="5.00" nVehEntered="15"/>
    <interval begin="300.00" end="531.00" id="1_actuated_program_D3.2" nVehContrib="6" flow="93.51" occupancy="1.13" speed="11.67" harmonicMeanSpeed="11.50" length="5.00" nVehEntered="6"/>
</detector>
