<?xml version="1.0" encoding="UTF-8"?>

<!-- generated on 2025-03-20 20:20:16 by Eclipse SUMO GUI Version 1.20.0
<configuration xmlns:xsi="http://www.w3.org/2001/XMLSchema-instance" xsi:noNamespaceSchemaLocation="http://sumo.dlr.de/xsd/sumoConfiguration.xsd">

    <input>
        <net-file value="/home/naderian/Desktop/Shakiba/MMSVCC/environment/network_model/single_intersection_pedestrian_X.net.xml"/>
        <route-files value="/home/naderian/Desktop/Shakiba/MMSVCC/environment/network_model/single_intersection.rou.xml"/>
        <additional-files value="/home/naderian/Desktop/Shakiba/MMSVCC/environment/network_model/single_intersection.add_actuated.xml"/>
    </input>

    <output>
        <queue-output value="/home/naderian/Desktop/Shakiba/MMSVCC/environment/simulation_data/single_intersection/queues_actuated_symmetric_pene_100.xml"/>
        <tripinfo-output value="/home/naderian/Desktop/Shakiba/MMSVCC/environment/simulation_data/single_intersection/tripinfo_actuated_symmetric_pene_100.xml"/>
    </output>

    <time>
        <begin value="0"/>
        <step-length value="0.5"/>
    </time>

    <processing>
        <waiting-time-memory value="1000"/>
    </processing>

    <report>
        <verbose value="true"/>
        <no-step-log value="true"/>
    </report>

    <traci_server>
        <remote-port value="48839"/>
    </traci_server>

    <gui_only>
        <start value="true"/>
    </gui_only>

</configuration>
-->

<detector xmlns:xsi="http://www.w3.org/2001/XMLSchema-instance" xsi:noNamespaceSchemaLocation="http://sumo.dlr.de/xsd/det_e1_file.xsd">
    <interval begin="0.00" end="160.50" id="1_actuated_program_D0.0" nVehContrib="18" flow="403.74" occupancy="4.87" speed="12.04" harmonicMeanSpeed="11.97" length="5.00" nVehEntered="19"/>
    <interval begin="0.00" end="160.50" id="1_actuated_program_D0.1" nVehContrib="1" flow="22.43" occupancy="0.42" speed="7.42" harmonicMeanSpeed="7.42" length="5.00" nVehEntered="1"/>
    <interval begin="0.00" end="160.50" id="1_actuated_program_D0.2" nVehContrib="0" flow="0.00" occupancy="0.00" speed="-1.00" harmonicMeanSpeed="-1.00" length="-1.00" nVehEntered="0"/>
    <interval begin="0.00" end="160.50" id="1_actuated_program_D1.0" nVehContrib="6" flow="134.58" occupancy="1.56" speed="12.01" harmonicMeanSpeed="12.00" length="5.00" nVehEntered="6"/>
    <interval begin="0.00" end="160.50" id="1_actuated_program_D1.1" nVehContrib="7" flow="157.01" occupancy="1.94" speed="11.58" harmonicMeanSpeed="11.21" length="5.00" nVehEntered="7"/>
    <interval begin="0.00" end="160.50" id="1_actuated_program_D1.2" nVehContrib="2" flow="44.86" occupancy="0.49" speed="12.67" harmonicMeanSpeed="12.66" length="5.00" nVehEntered="2"/>
    <interval begin="0.00" end="160.50" id="1_actuated_program_D2.0" nVehContrib="15" flow="336.45" occupancy="4.18" speed="11.66" harmonicMeanSpeed="11.19" length="5.00" nVehEntered="16"/>
    <interval begin="0.00" end="160.50" id="1_actuated_program_D2.1" nVehContrib="8" flow="179.44" occupancy="2.45" speed="11.06" harmonicMeanSpeed="10.17" length="5.00" nVehEntered="8"/>
    <interval begin="0.00" end="160.50" id="1_actuated_program_D2.2" nVehContrib="2" flow="44.86" occupancy="0.49" speed="12.68" harmonicMeanSpeed="12.68" length="5.00" nVehEntered="2"/>
    <interval begin="0.00" end="160.50" id="1_actuated_program_D3.0" nVehContrib="12" flow="269.16" occupancy="9.78" speed="11.04" harmonicMeanSpeed="10.65" length="5.00" nVehEntered="14"/>
    <interval begin="0.00" end="160.50" id="1_actuated_program_D3.1" nVehContrib="6" flow="134.58" occupancy="1.81" speed="10.46" harmonicMeanSpeed="10.33" length="5.00" nVehEntered="6"/>
    <interval begin="0.00" end="160.50" id="1_actuated_program_D3.2" nVehContrib="2" flow="44.86" occupancy="0.52" speed="11.94" harmonicMeanSpeed="11.93" length="5.00" nVehEntered="2"/>
</detector>
