<?xml version="1.0" encoding="UTF-8"?>

<!-- generated on 2025-03-15 13:56:03 by Eclipse SUMO GUI Version 1.20.0
<configuration xmlns:xsi="http://www.w3.org/2001/XMLSchema-instance" xsi:noNamespaceSchemaLocation="http://sumo.dlr.de/xsd/sumoConfiguration.xsd">

    <input>
        <net-file value="/home/naderian/Desktop/Shakiba/MMSVCC/environment/network_model/single_intersection_pedestrian_X.net.xml"/>
        <route-files value="/home/naderian/Desktop/Shakiba/MMSVCC/environment/network_model/single_intersection.rou.xml"/>
        <additional-files value="/home/naderian/Desktop/Shakiba/MMSVCC/environment/network_model/single_intersection.add_actuated.xml"/>
    </input>

    <output>
        <queue-output value="/home/naderian/Desktop/Shakiba/MMSVCC/environment/simulation_data/single_intersection/queues_actuated_symmetric_pene_100.xml"/>
        <tripinfo-output value="/home/naderian/Desktop/Shakiba/MMSVCC/environment/simulation_data/single_intersection/tripinfo_actuated_symmetric_pene_100.xml"/>
    </output>

    <time>
        <begin value="0"/>
        <step-length value="0.5"/>
    </time>

    <processing>
        <waiting-time-memory value="1000"/>
    </processing>

    <report>
        <verbose value="true"/>
        <no-step-log value="true"/>
    </report>

    <traci_server>
        <remote-port value="37545"/>
    </traci_server>

    <gui_only>
        <start value="true"/>
    </gui_only>

</configuration>
-->

<detector xmlns:xsi="http://www.w3.org/2001/XMLSchema-instance" xsi:noNamespaceSchemaLocation="http://sumo.dlr.de/xsd/det_e1_file.xsd">
    <interval begin="0.00" end="300.00" id="1_actuated_program_D0.0" nVehContrib="32" flow="384.00" occupancy="10.56" speed="10.85" harmonicMeanSpeed="5.10" length="5.00" nVehEntered="33"/>
    <interval begin="0.00" end="300.00" id="1_actuated_program_D0.1" nVehContrib="9" flow="108.00" occupancy="10.71" speed="6.83" harmonicMeanSpeed="1.40" length="5.00" nVehEntered="9"/>
    <interval begin="0.00" end="300.00" id="1_actuated_program_D0.2" nVehContrib="6" flow="72.00" occupancy="0.86" speed="11.77" harmonicMeanSpeed="11.61" length="5.00" nVehEntered="6"/>
    <interval begin="0.00" end="300.00" id="1_actuated_program_D1.0" nVehContrib="20" flow="240.00" occupancy="10.51" speed="9.54" harmonicMeanSpeed="3.17" length="5.00" nVehEntered="20"/>
    <interval begin="0.00" end="300.00" id="1_actuated_program_D1.1" nVehContrib="16" flow="192.00" occupancy="13.68" speed="9.20" harmonicMeanSpeed="2.05" length="5.00" nVehEntered="17"/>
    <interval begin="0.00" end="300.00" id="1_actuated_program_D1.2" nVehContrib="6" flow="72.00" occupancy="0.80" speed="12.44" harmonicMeanSpeed="12.43" length="5.00" nVehEntered="6"/>
    <interval begin="0.00" end="300.00" id="1_actuated_program_D2.0" nVehContrib="24" flow="288.00" occupancy="3.88" speed="10.96" harmonicMeanSpeed="10.31" length="5.00" nVehEntered="25"/>
    <interval begin="0.00" end="300.00" id="1_actuated_program_D2.1" nVehContrib="19" flow="228.00" occupancy="3.38" speed="10.24" harmonicMeanSpeed="9.36" length="5.00" nVehEntered="19"/>
    <interval begin="0.00" end="300.00" id="1_actuated_program_D2.2" nVehContrib="6" flow="72.00" occupancy="0.82" speed="12.25" harmonicMeanSpeed="12.23" length="5.00" nVehEntered="6"/>
    <interval begin="0.00" end="300.00" id="1_actuated_program_D3.0" nVehContrib="24" flow="288.00" occupancy="18.29" speed="9.25" harmonicMeanSpeed="2.22" length="5.00" nVehEntered="26"/>
    <interval begin="0.00" end="300.00" id="1_actuated_program_D3.1" nVehContrib="18" flow="216.00" occupancy="8.98" speed="8.83" harmonicMeanSpeed="3.34" length="5.00" nVehEntered="18"/>
    <interval begin="0.00" end="300.00" id="1_actuated_program_D3.2" nVehContrib="6" flow="72.00" occupancy="0.82" speed="12.28" harmonicMeanSpeed="12.27" length="5.00" nVehEntered="6"/>
    <interval begin="300.00" end="600.00" id="1_actuated_program_D0.0" nVehContrib="20" flow="240.00" occupancy="38.37" speed="4.98" harmonicMeanSpeed="0.87" length="5.00" nVehEntered="20"/>
    <interval begin="300.00" end="600.00" id="1_actuated_program_D0.1" nVehContrib="32" flow="384.00" occupancy="32.05" speed="7.49" harmonicMeanSpeed="1.66" length="5.00" nVehEntered="32"/>
    <interval begin="300.00" end="600.00" id="1_actuated_program_D0.2" nVehContrib="8" flow="96.00" occupancy="1.31" speed="10.82" harmonicMeanSpeed="10.15" length="5.00" nVehEntered="8"/>
    <interval begin="300.00" end="600.00" id="1_actuated_program_D1.0" nVehContrib="18" flow="216.00" occupancy="6.79" speed="9.10" harmonicMeanSpeed="5.81" length="5.00" nVehEntered="20"/>
    <interval begin="300.00" end="600.00" id="1_actuated_program_D1.1" nVehContrib="17" flow="204.00" occupancy="10.23" speed="9.54" harmonicMeanSpeed="6.89" length="5.00" nVehEntered="22"/>
    <interval begin="300.00" end="600.00" id="1_actuated_program_D1.2" nVehContrib="2" flow="24.00" occupancy="0.27" speed="12.45" harmonicMeanSpeed="12.45" length="5.00" nVehEntered="2"/>
    <interval begin="300.00" end="600.00" id="1_actuated_program_D2.0" nVehContrib="30" flow="360.00" occupancy="6.26" speed="9.64" harmonicMeanSpeed="8.08" length="5.00" nVehEntered="31"/>
    <interval begin="300.00" end="600.00" id="1_actuated_program_D2.1" nVehContrib="16" flow="192.00" occupancy="11.40" speed="9.35" harmonicMeanSpeed="2.55" length="5.00" nVehEntered="17"/>
    <interval begin="300.00" end="600.00" id="1_actuated_program_D2.2" nVehContrib="5" flow="60.00" occupancy="0.67" speed="12.41" harmonicMeanSpeed="12.41" length="5.00" nVehEntered="5"/>
    <interval begin="300.00" end="600.00" id="1_actuated_program_D3.0" nVehContrib="15" flow="180.00" occupancy="26.92" speed="5.53" harmonicMeanSpeed="0.98" length="5.00" nVehEntered="17"/>
    <interval begin="300.00" end="600.00" id="1_actuated_program_D3.1" nVehContrib="24" flow="288.00" occupancy="37.74" speed="7.14" harmonicMeanSpeed="2.02" length="5.00" nVehEntered="27"/>
    <interval begin="300.00" end="600.00" id="1_actuated_program_D3.2" nVehContrib="4" flow="48.00" occupancy="0.54" speed="12.32" harmonicMeanSpeed="12.29" length="5.00" nVehEntered="4"/>
    <interval begin="600.00" end="900.00" id="1_actuated_program_D0.0" nVehContrib="16" flow="192.00" occupancy="57.31" speed="3.25" harmonicMeanSpeed="0.60" length="5.00" nVehEntered="17"/>
    <interval begin="600.00" end="900.00" id="1_actuated_program_D0.1" nVehContrib="36" flow="432.00" occupancy="65.54" speed="6.49" harmonicMeanSpeed="1.20" length="5.00" nVehEntered="39"/>
    <interval begin="600.00" end="900.00" id="1_actuated_program_D0.2" nVehContrib="9" flow="108.00" occupancy="13.78" speed="8.37" harmonicMeanSpeed="1.09" length="5.00" nVehEntered="9"/>
    <interval begin="600.00" end="900.00" id="1_actuated_program_D1.0" nVehContrib="23" flow="276.00" occupancy="54.57" speed="3.00" harmonicMeanSpeed="0.69" length="5.00" nVehEntered="23"/>
    <interval begin="600.00" end="900.00" id="1_actuated_program_D1.1" nVehContrib="42" flow="504.00" occupancy="53.84" speed="7.65" harmonicMeanSpeed="1.21" length="5.00" nVehEntered="42"/>
    <interval begin="600.00" end="900.00" id="1_actuated_program_D1.2" nVehContrib="9" flow="108.00" occupancy="1.41" speed="11.17" harmonicMeanSpeed="10.63" length="5.00" nVehEntered="9"/>
    <interval begin="600.00" end="900.00" id="1_actuated_program_D2.0" nVehContrib="27" flow="324.00" occupancy="41.46" speed="7.22" harmonicMeanSpeed="1.22" length="5.00" nVehEntered="28"/>
    <interval begin="600.00" end="900.00" id="1_actuated_program_D2.1" nVehContrib="32" flow="384.00" occupancy="48.89" speed="7.38" harmonicMeanSpeed="1.24" length="5.00" nVehEntered="33"/>
    <interval begin="600.00" end="900.00" id="1_actuated_program_D2.2" nVehContrib="9" flow="108.00" occupancy="1.35" speed="11.40" harmonicMeanSpeed="11.10" length="5.00" nVehEntered="9"/>
    <interval begin="600.00" end="900.00" id="1_actuated_program_D3.0" nVehContrib="23" flow="276.00" occupancy="62.57" speed="2.61" harmonicMeanSpeed="0.60" length="5.00" nVehEntered="22"/>
    <interval begin="600.00" end="900.00" id="1_actuated_program_D3.1" nVehContrib="43" flow="516.00" occupancy="53.87" speed="6.72" harmonicMeanSpeed="1.02" length="5.00" nVehEntered="42"/>
    <interval begin="600.00" end="900.00" id="1_actuated_program_D3.2" nVehContrib="9" flow="108.00" occupancy="1.33" speed="11.42" harmonicMeanSpeed="11.28" length="5.00" nVehEntered="9"/>
    <interval begin="900.00" end="1138.00" id="1_actuated_program_D0.0" nVehContrib="5" flow="75.63" occupancy="16.24" speed="1.91" harmonicMeanSpeed="0.32" length="5.00" nVehEntered="4"/>
    <interval begin="900.00" end="1138.00" id="1_actuated_program_D0.1" nVehContrib="3" flow="45.38" occupancy="19.42" speed="2.55" harmonicMeanSpeed="0.17" length="5.00" nVehEntered="2"/>
    <interval begin="900.00" end="1138.00" id="1_actuated_program_D0.2" nVehContrib="0" flow="0.00" occupancy="0.00" speed="-1.00" harmonicMeanSpeed="-1.00" length="-1.00" nVehEntered="0"/>
    <interval begin="900.00" end="1138.00" id="1_actuated_program_D1.0" nVehContrib="2" flow="30.25" occupancy="0.34" speed="12.19" harmonicMeanSpeed="12.19" length="5.00" nVehEntered="2"/>
    <interval begin="900.00" end="1138.00" id="1_actuated_program_D1.1" nVehContrib="3" flow="45.38" occupancy="0.47" speed="10.93" harmonicMeanSpeed="10.32" length="5.00" nVehEntered="2"/>
    <interval begin="900.00" end="1138.00" id="1_actuated_program_D1.2" nVehContrib="0" flow="0.00" occupancy="0.00" speed="-1.00" harmonicMeanSpeed="-1.00" length="-1.00" nVehEntered="0"/>
    <interval begin="900.00" end="1138.00" id="1_actuated_program_D2.0" nVehContrib="3" flow="45.38" occupancy="18.38" speed="0.89" harmonicMeanSpeed="0.26" length="5.00" nVehEntered="2"/>
    <interval begin="900.00" end="1138.00" id="1_actuated_program_D2.1" nVehContrib="3" flow="45.38" occupancy="19.99" speed="2.33" harmonicMeanSpeed="0.23" length="5.00" nVehEntered="2"/>
    <interval begin="900.00" end="1138.00" id="1_actuated_program_D2.2" nVehContrib="0" flow="0.00" occupancy="0.00" speed="-1.00" harmonicMeanSpeed="-1.00" length="-1.00" nVehEntered="0"/>
    <interval begin="900.00" end="1138.00" id="1_actuated_program_D3.0" nVehContrib="5" flow="75.63" occupancy="2.28" speed="6.02" harmonicMeanSpeed="4.60" length="5.00" nVehEntered="5"/>
    <interval begin="900.00" end="1138.00" id="1_actuated_program_D3.1" nVehContrib="7" flow="105.88" occupancy="1.65" speed="9.20" harmonicMeanSpeed="8.90" length="5.00" nVehEntered="7"/>
    <interval begin="900.00" end="1138.00" id="1_actuated_program_D3.2" nVehContrib="0" flow="0.00" occupancy="0.00" speed="-1.00" harmonicMeanSpeed="-1.00" length="-1.00" nVehEntered="0"/>
</detector>
