<?xml version="1.0" encoding="UTF-8"?>

<!-- generated on 2025-06-25 17:39:14 by Eclipse SUMO GUI Version 1.22.0
<sumoConfiguration xmlns:xsi="http://www.w3.org/2001/XMLSchema-instance" xsi:noNamespaceSchemaLocation="http://sumo.dlr.de/xsd/sumoConfiguration.xsd">

    <input>
        <net-file value="/home/naderian/Desktop/Shakiba/MMSVCC/environment/network_model/single_intersection_bike.net.xml"/>
        <route-files value="/home/naderian/Desktop/Shakiba/MMSVCC/environment/network_model/single_intersection.rou.xml"/>
        <additional-files value="/home/naderian/Desktop/Shakiba/MMSVCC/environment/network_model/single_intersection.add_actuated.xml"/>
    </input>

    <output>
        <queue-output value="/home/naderian/Desktop/Shakiba/MMSVCC/environment/simulation_data/single_intersection/queues_actuated_pene_100.xml"/>
        <tripinfo-output value="/home/naderian/Desktop/Shakiba/MMSVCC/environment/simulation_data/single_intersection/tripinfo_actuated_pene_100.xml"/>
    </output>

    <time>
        <begin value="0"/>
        <step-length value="0.5"/>
    </time>

    <processing>
        <waiting-time-memory value="1000"/>
    </processing>

    <report>
        <verbose value="true"/>
        <no-step-log value="true"/>
    </report>

    <ssm_device>
        <device.ssm.file value="/home/naderian/Desktop/Shakiba/MMSVCC/environment/simulation_data/single_intersection/SSMinfo_actuated_pene_100.xml"/>
    </ssm_device>

    <traci_server>
        <remote-port value="38447"/>
    </traci_server>

    <gui_only>
        <start value="true"/>
    </gui_only>

</sumoConfiguration>
-->

<detector xmlns:xsi="http://www.w3.org/2001/XMLSchema-instance" xsi:noNamespaceSchemaLocation="http://sumo.dlr.de/xsd/det_e1_file.xsd">
    <interval begin="0.00" end="300.00" id="1_actuated_program_D0.0" nVehContrib="10" flow="120.00" occupancy="1.77" speed="4.68" harmonicMeanSpeed="4.34" length="1.60" nVehEntered="11"/>
    <interval begin="0.00" end="300.00" id="1_actuated_program_D0.1" nVehContrib="24" flow="288.00" occupancy="8.98" speed="9.09" harmonicMeanSpeed="4.35" length="4.86" nVehEntered="24"/>
    <interval begin="0.00" end="300.00" id="1_actuated_program_D0.2" nVehContrib="19" flow="228.00" occupancy="15.41" speed="8.29" harmonicMeanSpeed="2.12" length="5.00" nVehEntered="20"/>
    <interval begin="0.00" end="300.00" id="1_actuated_program_D0.3" nVehContrib="7" flow="84.00" occupancy="0.98" speed="10.64" harmonicMeanSpeed="9.89" length="4.51" nVehEntered="7"/>
    <interval begin="0.00" end="300.00" id="1_actuated_program_D1.0" nVehContrib="15" flow="180.00" occupancy="1.83" speed="4.61" harmonicMeanSpeed="4.38" length="1.60" nVehEntered="15"/>
    <interval begin="0.00" end="300.00" id="1_actuated_program_D1.1" nVehContrib="16" flow="192.00" occupancy="14.84" speed="9.33" harmonicMeanSpeed="1.77" length="4.79" nVehEntered="16"/>
    <interval begin="0.00" end="300.00" id="1_actuated_program_D1.2" nVehContrib="21" flow="252.00" occupancy="18.45" speed="9.33" harmonicMeanSpeed="1.90" length="5.00" nVehEntered="21"/>
    <interval begin="0.00" end="300.00" id="1_actuated_program_D1.3" nVehContrib="6" flow="72.00" occupancy="0.85" speed="11.81" harmonicMeanSpeed="11.80" length="5.00" nVehEntered="6"/>
    <interval begin="0.00" end="300.00" id="1_actuated_program_D2.0" nVehContrib="6" flow="72.00" occupancy="0.74" speed="4.77" harmonicMeanSpeed="4.32" length="1.60" nVehEntered="6"/>
    <interval begin="0.00" end="300.00" id="1_actuated_program_D3.0" nVehContrib="4" flow="48.00" occupancy="0.79" speed="2.77" harmonicMeanSpeed="2.69" length="1.60" nVehEntered="4"/>
    <interval begin="0.00" end="300.00" id="1_actuated_program_D4.0" nVehContrib="17" flow="204.00" occupancy="16.08" speed="8.83" harmonicMeanSpeed="4.30" length="5.00" nVehEntered="18"/>
    <interval begin="0.00" end="300.00" id="1_actuated_program_D4.1" nVehContrib="21" flow="252.00" occupancy="22.34" speed="7.68" harmonicMeanSpeed="3.15" length="5.00" nVehEntered="22"/>
    <interval begin="0.00" end="300.00" id="1_actuated_program_D4.2" nVehContrib="8" flow="96.00" occupancy="1.25" speed="9.53" harmonicMeanSpeed="7.83" length="4.15" nVehEntered="8"/>
    <interval begin="0.00" end="300.00" id="1_actuated_program_D5.0" nVehContrib="15" flow="180.00" occupancy="11.09" speed="1.65" harmonicMeanSpeed="0.72" length="1.60" nVehEntered="15"/>
    <interval begin="0.00" end="300.00" id="1_actuated_program_D5.1" nVehContrib="28" flow="336.00" occupancy="19.67" speed="4.56" harmonicMeanSpeed="1.98" length="3.06" nVehEntered="29"/>
    <interval begin="0.00" end="300.00" id="1_actuated_program_D5.2" nVehContrib="30" flow="360.00" occupancy="27.34" speed="6.75" harmonicMeanSpeed="1.92" length="4.77" nVehEntered="32"/>
    <interval begin="0.00" end="300.00" id="1_actuated_program_D5.3" nVehContrib="6" flow="72.00" occupancy="0.82" speed="12.16" harmonicMeanSpeed="12.14" length="5.00" nVehEntered="6"/>
    <interval begin="300.00" end="600.00" id="1_actuated_program_D0.0" nVehContrib="11" flow="132.00" occupancy="2.89" speed="3.34" harmonicMeanSpeed="1.71" length="1.60" nVehEntered="10"/>
    <interval begin="300.00" end="600.00" id="1_actuated_program_D0.1" nVehContrib="13" flow="156.00" occupancy="66.20" speed="3.83" harmonicMeanSpeed="0.65" length="4.74" nVehEntered="15"/>
    <interval begin="300.00" end="600.00" id="1_actuated_program_D0.2" nVehContrib="27" flow="324.00" occupancy="69.06" speed="6.35" harmonicMeanSpeed="1.01" length="4.87" nVehEntered="29"/>
    <interval begin="300.00" end="600.00" id="1_actuated_program_D0.3" nVehContrib="8" flow="96.00" occupancy="1.18" speed="11.48" harmonicMeanSpeed="11.33" length="5.00" nVehEntered="8"/>
    <interval begin="300.00" end="600.00" id="1_actuated_program_D1.0" nVehContrib="19" flow="228.00" occupancy="5.11" speed="3.13" harmonicMeanSpeed="1.98" length="1.60" nVehEntered="19"/>
    <interval begin="300.00" end="600.00" id="1_actuated_program_D1.1" nVehContrib="15" flow="180.00" occupancy="16.19" speed="6.69" harmonicMeanSpeed="1.49" length="4.32" nVehEntered="15"/>
    <interval begin="300.00" end="600.00" id="1_actuated_program_D1.2" nVehContrib="25" flow="300.00" occupancy="19.27" speed="9.02" harmonicMeanSpeed="2.38" length="5.00" nVehEntered="26"/>
    <interval begin="300.00" end="600.00" id="1_actuated_program_D1.3" nVehContrib="2" flow="24.00" occupancy="0.28" speed="11.98" harmonicMeanSpeed="11.98" length="5.00" nVehEntered="2"/>
    <interval begin="300.00" end="600.00" id="1_actuated_program_D2.0" nVehContrib="5" flow="60.00" occupancy="0.63" speed="4.59" harmonicMeanSpeed="4.21" length="1.60" nVehEntered="5"/>
    <interval begin="300.00" end="600.00" id="1_actuated_program_D3.0" nVehContrib="10" flow="120.00" occupancy="3.23" speed="2.52" harmonicMeanSpeed="1.65" length="1.60" nVehEntered="10"/>
    <interval begin="300.00" end="600.00" id="1_actuated_program_D4.0" nVehContrib="20" flow="240.00" occupancy="47.66" speed="6.19" harmonicMeanSpeed="0.80" length="5.00" nVehEntered="20"/>
    <interval begin="300.00" end="600.00" id="1_actuated_program_D4.1" nVehContrib="21" flow="252.00" occupancy="50.78" speed="7.23" harmonicMeanSpeed="0.77" length="5.00" nVehEntered="21"/>
    <interval begin="300.00" end="600.00" id="1_actuated_program_D4.2" nVehContrib="5" flow="60.00" occupancy="0.73" speed="11.45" harmonicMeanSpeed="11.38" length="5.00" nVehEntered="5"/>
    <interval begin="300.00" end="600.00" id="1_actuated_program_D5.0" nVehContrib="12" flow="144.00" occupancy="6.75" speed="1.57" harmonicMeanSpeed="0.95" length="1.60" nVehEntered="12"/>
    <interval begin="300.00" end="600.00" id="1_actuated_program_D5.1" nVehContrib="35" flow="420.00" occupancy="53.05" speed="1.58" harmonicMeanSpeed="0.73" length="2.47" nVehEntered="36"/>
    <interval begin="300.00" end="600.00" id="1_actuated_program_D5.2" nVehContrib="36" flow="432.00" occupancy="74.80" speed="3.42" harmonicMeanSpeed="0.77" length="3.77" nVehEntered="37"/>
    <interval begin="300.00" end="600.00" id="1_actuated_program_D5.3" nVehContrib="4" flow="48.00" occupancy="0.55" speed="12.12" harmonicMeanSpeed="12.11" length="5.00" nVehEntered="4"/>
    <interval begin="600.00" end="771.00" id="1_actuated_program_D0.0" nVehContrib="12" flow="252.63" occupancy="10.96" speed="2.78" harmonicMeanSpeed="1.02" length="1.60" nVehEntered="12"/>
    <interval begin="600.00" end="771.00" id="1_actuated_program_D0.1" nVehContrib="6" flow="126.32" occupancy="87.59" speed="1.14" harmonicMeanSpeed="0.13" length="5.00" nVehEntered="6"/>
    <interval begin="600.00" end="771.00" id="1_actuated_program_D0.2" nVehContrib="24" flow="505.26" occupancy="67.91" speed="6.52" harmonicMeanSpeed="0.64" length="5.00" nVehEntered="23"/>
    <interval begin="600.00" end="771.00" id="1_actuated_program_D0.3" nVehContrib="4" flow="84.21" occupancy="1.29" speed="9.68" harmonicMeanSpeed="9.03" length="5.00" nVehEntered="4"/>
    <interval begin="600.00" end="771.00" id="1_actuated_program_D1.0" nVehContrib="8" flow="168.42" occupancy="1.50" speed="5.05" harmonicMeanSpeed="4.99" length="1.60" nVehEntered="8"/>
    <interval begin="600.00" end="771.00" id="1_actuated_program_D1.1" nVehContrib="11" flow="231.58" occupancy="63.83" speed="4.77" harmonicMeanSpeed="0.62" length="5.00" nVehEntered="12"/>
    <interval begin="600.00" end="771.00" id="1_actuated_program_D1.2" nVehContrib="23" flow="484.21" occupancy="53.00" speed="8.50" harmonicMeanSpeed="1.56" length="5.00" nVehEntered="24"/>
    <interval begin="600.00" end="771.00" id="1_actuated_program_D1.3" nVehContrib="6" flow="126.32" occupancy="1.74" speed="8.36" harmonicMeanSpeed="6.84" length="3.87" nVehEntered="6"/>
    <interval begin="600.00" end="771.00" id="1_actuated_program_D2.0" nVehContrib="2" flow="42.11" occupancy="0.34" speed="5.48" harmonicMeanSpeed="5.46" length="1.60" nVehEntered="2"/>
    <interval begin="600.00" end="771.00" id="1_actuated_program_D3.0" nVehContrib="2" flow="42.11" occupancy="0.72" speed="3.04" harmonicMeanSpeed="2.58" length="1.60" nVehEntered="2"/>
    <interval begin="600.00" end="771.00" id="1_actuated_program_D4.0" nVehContrib="12" flow="252.63" occupancy="67.24" speed="1.99" harmonicMeanSpeed="0.40" length="5.00" nVehEntered="13"/>
    <interval begin="600.00" end="771.00" id="1_actuated_program_D4.1" nVehContrib="20" flow="421.05" occupancy="69.01" speed="6.10" harmonicMeanSpeed="0.60" length="5.00" nVehEntered="20"/>
    <interval begin="600.00" end="771.00" id="1_actuated_program_D4.2" nVehContrib="5" flow="105.26" occupancy="1.45" speed="9.04" harmonicMeanSpeed="7.83" length="4.32" nVehEntered="5"/>
    <interval begin="600.00" end="771.00" id="1_actuated_program_D5.0" nVehContrib="3" flow="63.16" occupancy="8.82" speed="0.32" harmonicMeanSpeed="0.32" length="1.60" nVehEntered="3"/>
    <interval begin="600.00" end="771.00" id="1_actuated_program_D5.1" nVehContrib="6" flow="126.32" occupancy="27.58" speed="1.41" harmonicMeanSpeed="1.34" length="5.00" nVehEntered="6"/>
    <interval begin="600.00" end="771.00" id="1_actuated_program_D5.2" nVehContrib="18" flow="378.95" occupancy="81.36" speed="3.62" harmonicMeanSpeed="0.75" length="4.06" nVehEntered="18"/>
    <interval begin="600.00" end="771.00" id="1_actuated_program_D5.3" nVehContrib="5" flow="105.26" occupancy="1.24" speed="11.89" harmonicMeanSpeed="11.79" length="5.00" nVehEntered="5"/>
</detector>
