<?xml version="1.0" encoding="UTF-8"?>

<!-- generated on 2025-06-25 13:55:49 by Eclipse SUMO GUI Version 1.22.0
<sumoConfiguration xmlns:xsi="http://www.w3.org/2001/XMLSchema-instance" xsi:noNamespaceSchemaLocation="http://sumo.dlr.de/xsd/sumoConfiguration.xsd">

    <input>
        <net-file value="/home/naderian/Desktop/Shakiba/MMSVCC/environment/network_model/single_intersection_Concurrent_(LPI).net.xml"/>
        <route-files value="/home/naderian/Desktop/Shakiba/MMSVCC/environment/network_model/single_intersection.rou.xml"/>
        <additional-files value="/home/naderian/Desktop/Shakiba/MMSVCC/environment/network_model/single_intersection.add_actuated_(LPI).xml"/>
    </input>

    <output>
        <queue-output value="/home/naderian/Desktop/Shakiba/MMSVCC/environment/simulation_data/single_intersection/queues_actuated_symmetric_pene_100.xml"/>
        <tripinfo-output value="/home/naderian/Desktop/Shakiba/MMSVCC/environment/simulation_data/single_intersection/tripinfo_actuated_symmetric_pene_100.xml"/>
    </output>

    <time>
        <begin value="0"/>
        <step-length value="0.5"/>
    </time>

    <processing>
        <waiting-time-memory value="1000"/>
    </processing>

    <report>
        <verbose value="true"/>
        <no-step-log value="true"/>
    </report>

    <ssm_device>
        <device.ssm.file value="/home/naderian/Desktop/Shakiba/MMSVCC/environment/simulation_data/single_intersection/SSMinfo_actuated_pene_100.xml"/>
    </ssm_device>

    <traci_server>
        <remote-port value="42939"/>
    </traci_server>

    <gui_only>
        <start value="true"/>
    </gui_only>

</sumoConfiguration>
-->

<detector xmlns:xsi="http://www.w3.org/2001/XMLSchema-instance" xsi:noNamespaceSchemaLocation="http://sumo.dlr.de/xsd/det_e1_file.xsd">
    <interval begin="0.00" end="300.00" id="1_actuated_program_D0.0" nVehContrib="25" flow="300.00" occupancy="8.57" speed="10.19" harmonicMeanSpeed="4.86" length="5.00" nVehEntered="25"/>
    <interval begin="0.00" end="300.00" id="1_actuated_program_D0.1" nVehContrib="17" flow="204.00" occupancy="10.64" speed="7.08" harmonicMeanSpeed="2.81" length="5.00" nVehEntered="18"/>
    <interval begin="0.00" end="300.00" id="1_actuated_program_D0.2" nVehContrib="6" flow="72.00" occupancy="0.82" speed="12.21" harmonicMeanSpeed="12.19" length="5.00" nVehEntered="6"/>
    <interval begin="0.00" end="300.00" id="1_actuated_program_D1.0" nVehContrib="13" flow="156.00" occupancy="11.14" speed="8.46" harmonicMeanSpeed="1.94" length="5.00" nVehEntered="13"/>
    <interval begin="0.00" end="300.00" id="1_actuated_program_D1.1" nVehContrib="23" flow="276.00" occupancy="8.65" speed="9.91" harmonicMeanSpeed="4.43" length="5.00" nVehEntered="23"/>
    <interval begin="0.00" end="300.00" id="1_actuated_program_D1.2" nVehContrib="6" flow="72.00" occupancy="0.82" speed="12.22" harmonicMeanSpeed="12.22" length="5.00" nVehEntered="6"/>
    <interval begin="0.00" end="300.00" id="1_actuated_program_D2.0" nVehContrib="20" flow="240.00" occupancy="22.02" speed="8.96" harmonicMeanSpeed="1.54" length="5.00" nVehEntered="21"/>
    <interval begin="0.00" end="300.00" id="1_actuated_program_D2.1" nVehContrib="22" flow="264.00" occupancy="13.82" speed="8.28" harmonicMeanSpeed="2.65" length="5.00" nVehEntered="22"/>
    <interval begin="0.00" end="300.00" id="1_actuated_program_D2.2" nVehContrib="6" flow="72.00" occupancy="0.86" speed="11.74" harmonicMeanSpeed="11.65" length="5.00" nVehEntered="6"/>
    <interval begin="0.00" end="300.00" id="1_actuated_program_D3.0" nVehContrib="23" flow="276.00" occupancy="6.48" speed="10.94" harmonicMeanSpeed="10.23" length="5.00" nVehEntered="25"/>
    <interval begin="0.00" end="300.00" id="1_actuated_program_D3.1" nVehContrib="17" flow="204.00" occupancy="4.83" speed="8.67" harmonicMeanSpeed="5.86" length="5.00" nVehEntered="17"/>
    <interval begin="0.00" end="300.00" id="1_actuated_program_D3.2" nVehContrib="6" flow="72.00" occupancy="0.89" speed="11.41" harmonicMeanSpeed="11.25" length="5.00" nVehEntered="6"/>
    <interval begin="300.00" end="600.00" id="1_actuated_program_D0.0" nVehContrib="18" flow="216.00" occupancy="55.69" speed="5.72" harmonicMeanSpeed="0.55" length="5.00" nVehEntered="19"/>
    <interval begin="300.00" end="600.00" id="1_actuated_program_D0.1" nVehContrib="33" flow="396.00" occupancy="39.10" speed="7.32" harmonicMeanSpeed="1.41" length="5.00" nVehEntered="33"/>
    <interval begin="300.00" end="600.00" id="1_actuated_program_D0.2" nVehContrib="7" flow="84.00" occupancy="2.46" speed="11.02" harmonicMeanSpeed="10.33" length="5.00" nVehEntered="8"/>
    <interval begin="300.00" end="600.00" id="1_actuated_program_D1.0" nVehContrib="11" flow="132.00" occupancy="11.93" speed="7.18" harmonicMeanSpeed="2.06" length="5.00" nVehEntered="13"/>
    <interval begin="300.00" end="600.00" id="1_actuated_program_D1.1" nVehContrib="25" flow="300.00" occupancy="26.06" speed="7.59" harmonicMeanSpeed="1.90" length="5.00" nVehEntered="28"/>
    <interval begin="300.00" end="600.00" id="1_actuated_program_D1.2" nVehContrib="2" flow="24.00" occupancy="0.32" speed="10.69" harmonicMeanSpeed="10.55" length="5.00" nVehEntered="2"/>
    <interval begin="300.00" end="600.00" id="1_actuated_program_D2.0" nVehContrib="11" flow="132.00" occupancy="52.21" speed="1.58" harmonicMeanSpeed="0.36" length="5.00" nVehEntered="11"/>
    <interval begin="300.00" end="600.00" id="1_actuated_program_D2.1" nVehContrib="36" flow="432.00" occupancy="36.46" speed="8.21" harmonicMeanSpeed="1.69" length="5.00" nVehEntered="37"/>
    <interval begin="300.00" end="600.00" id="1_actuated_program_D2.2" nVehContrib="5" flow="60.00" occupancy="0.72" speed="11.64" harmonicMeanSpeed="11.52" length="5.00" nVehEntered="5"/>
    <interval begin="300.00" end="600.00" id="1_actuated_program_D3.0" nVehContrib="17" flow="204.00" occupancy="30.65" speed="8.23" harmonicMeanSpeed="1.11" length="5.00" nVehEntered="17"/>
    <interval begin="300.00" end="600.00" id="1_actuated_program_D3.1" nVehContrib="27" flow="324.00" occupancy="30.40" speed="8.38" harmonicMeanSpeed="2.27" length="5.00" nVehEntered="29"/>
    <interval begin="300.00" end="600.00" id="1_actuated_program_D3.2" nVehContrib="4" flow="48.00" occupancy="0.53" speed="12.56" harmonicMeanSpeed="12.56" length="5.00" nVehEntered="4"/>
    <interval begin="600.00" end="900.00" id="1_actuated_program_D0.0" nVehContrib="12" flow="144.00" occupancy="62.58" speed="3.26" harmonicMeanSpeed="0.37" length="5.00" nVehEntered="14"/>
    <interval begin="600.00" end="900.00" id="1_actuated_program_D0.1" nVehContrib="46" flow="552.00" occupancy="57.80" speed="7.76" harmonicMeanSpeed="1.33" length="5.00" nVehEntered="46"/>
    <interval begin="600.00" end="900.00" id="1_actuated_program_D0.2" nVehContrib="10" flow="120.00" occupancy="2.76" speed="9.09" harmonicMeanSpeed="4.07" length="5.00" nVehEntered="9"/>
    <interval begin="600.00" end="900.00" id="1_actuated_program_D1.0" nVehContrib="9" flow="108.00" occupancy="75.13" speed="1.46" harmonicMeanSpeed="0.30" length="5.00" nVehEntered="10"/>
    <interval begin="600.00" end="900.00" id="1_actuated_program_D1.1" nVehContrib="41" flow="492.00" occupancy="54.53" speed="8.62" harmonicMeanSpeed="1.80" length="5.00" nVehEntered="41"/>
    <interval begin="600.00" end="900.00" id="1_actuated_program_D1.2" nVehContrib="9" flow="108.00" occupancy="1.29" speed="11.76" harmonicMeanSpeed="11.64" length="5.00" nVehEntered="9"/>
    <interval begin="600.00" end="900.00" id="1_actuated_program_D2.0" nVehContrib="7" flow="84.00" occupancy="67.54" speed="0.87" harmonicMeanSpeed="0.17" length="5.00" nVehEntered="9"/>
    <interval begin="600.00" end="900.00" id="1_actuated_program_D2.1" nVehContrib="51" flow="612.00" occupancy="59.86" speed="8.40" harmonicMeanSpeed="1.42" length="5.00" nVehEntered="52"/>
    <interval begin="600.00" end="900.00" id="1_actuated_program_D2.2" nVehContrib="9" flow="108.00" occupancy="3.16" speed="9.92" harmonicMeanSpeed="4.75" length="5.00" nVehEntered="9"/>
    <interval begin="600.00" end="900.00" id="1_actuated_program_D3.0" nVehContrib="18" flow="216.00" occupancy="63.65" speed="4.68" harmonicMeanSpeed="0.54" length="5.00" nVehEntered="19"/>
    <interval begin="600.00" end="900.00" id="1_actuated_program_D3.1" nVehContrib="38" flow="456.00" occupancy="60.22" speed="7.56" harmonicMeanSpeed="1.17" length="5.00" nVehEntered="38"/>
    <interval begin="600.00" end="900.00" id="1_actuated_program_D3.2" nVehContrib="9" flow="108.00" occupancy="1.53" speed="10.59" harmonicMeanSpeed="9.81" length="5.00" nVehEntered="9"/>
    <interval begin="900.00" end="1149.00" id="1_actuated_program_D0.0" nVehContrib="1" flow="14.46" occupancy="31.31" speed="0.06" harmonicMeanSpeed="0.06" length="5.00" nVehEntered="1"/>
    <interval begin="900.00" end="1149.00" id="1_actuated_program_D0.1" nVehContrib="1" flow="14.46" occupancy="32.52" speed="0.06" harmonicMeanSpeed="0.06" length="5.00" nVehEntered="1"/>
    <interval begin="900.00" end="1149.00" id="1_actuated_program_D0.2" nVehContrib="0" flow="0.00" occupancy="0.00" speed="-1.00" harmonicMeanSpeed="-1.00" length="-1.00" nVehEntered="0"/>
    <interval begin="900.00" end="1149.00" id="1_actuated_program_D1.0" nVehContrib="6" flow="86.75" occupancy="45.30" speed="0.62" harmonicMeanSpeed="0.16" length="5.00" nVehEntered="5"/>
    <interval begin="900.00" end="1149.00" id="1_actuated_program_D1.1" nVehContrib="13" flow="187.95" occupancy="10.61" speed="7.38" harmonicMeanSpeed="0.79" length="5.00" nVehEntered="12"/>
    <interval begin="900.00" end="1149.00" id="1_actuated_program_D1.2" nVehContrib="0" flow="0.00" occupancy="0.00" speed="-1.00" harmonicMeanSpeed="-1.00" length="-1.00" nVehEntered="0"/>
    <interval begin="900.00" end="1149.00" id="1_actuated_program_D2.0" nVehContrib="3" flow="43.37" occupancy="40.51" speed="1.64" harmonicMeanSpeed="0.16" length="5.00" nVehEntered="3"/>
    <interval begin="900.00" end="1149.00" id="1_actuated_program_D2.1" nVehContrib="4" flow="57.83" occupancy="37.95" speed="3.32" harmonicMeanSpeed="0.21" length="5.00" nVehEntered="3"/>
    <interval begin="900.00" end="1149.00" id="1_actuated_program_D2.2" nVehContrib="0" flow="0.00" occupancy="0.00" speed="-1.00" harmonicMeanSpeed="-1.00" length="-1.00" nVehEntered="0"/>
    <interval begin="900.00" end="1149.00" id="1_actuated_program_D3.0" nVehContrib="5" flow="72.29" occupancy="12.94" speed="1.79" harmonicMeanSpeed="0.32" length="5.00" nVehEntered="5"/>
    <interval begin="900.00" end="1149.00" id="1_actuated_program_D3.1" nVehContrib="14" flow="202.41" occupancy="11.48" speed="6.34" harmonicMeanSpeed="0.93" length="5.00" nVehEntered="13"/>
    <interval begin="900.00" end="1149.00" id="1_actuated_program_D3.2" nVehContrib="0" flow="0.00" occupancy="0.00" speed="-1.00" harmonicMeanSpeed="-1.00" length="-1.00" nVehEntered="0"/>
</detector>
