<?xml version="1.0" encoding="UTF-8"?>

<!-- generated on 2025-06-19 16:22:47 by Eclipse SUMO GUI Version 1.22.0
<sumoConfiguration xmlns:xsi="http://www.w3.org/2001/XMLSchema-instance" xsi:noNamespaceSchemaLocation="http://sumo.dlr.de/xsd/sumoConfiguration.xsd">

    <input>
        <net-file value="/home/naderian/Desktop/Shakiba/MMSVCC/environment/network_model/single_intersection_pedestrian_X.net.xml"/>
        <route-files value="/home/naderian/Desktop/Shakiba/MMSVCC/environment/network_model/single_intersection.rou.xml"/>
        <additional-files value="/home/naderian/Desktop/Shakiba/MMSVCC/environment/network_model/single_intersection.add_actuated.xml"/>
    </input>

    <output>
        <queue-output value="/home/naderian/Desktop/Shakiba/MMSVCC/environment/simulation_data/single_intersection/queues_actuated_symmetric_pene_100.xml"/>
        <tripinfo-output value="/home/naderian/Desktop/Shakiba/MMSVCC/environment/simulation_data/single_intersection/tripinfo_actuated_symmetric_pene_100.xml"/>
    </output>

    <time>
        <begin value="0"/>
        <step-length value="0.5"/>
    </time>

    <processing>
        <waiting-time-memory value="1000"/>
    </processing>

    <report>
        <verbose value="true"/>
        <no-step-log value="true"/>
    </report>

    <traci_server>
        <remote-port value="53519"/>
    </traci_server>

    <gui_only>
        <start value="true"/>
    </gui_only>

</sumoConfiguration>
-->

<detector xmlns:xsi="http://www.w3.org/2001/XMLSchema-instance" xsi:noNamespaceSchemaLocation="http://sumo.dlr.de/xsd/det_e1_file.xsd">
    <interval begin="0.00" end="300.00" id="1_actuated_program_D0.0" nVehContrib="28" flow="336.00" occupancy="4.75" speed="10.96" harmonicMeanSpeed="9.82" length="5.00" nVehEntered="28"/>
    <interval begin="0.00" end="300.00" id="1_actuated_program_D0.1" nVehContrib="14" flow="168.00" occupancy="5.96" speed="7.45" harmonicMeanSpeed="3.93" length="5.00" nVehEntered="15"/>
    <interval begin="0.00" end="300.00" id="1_actuated_program_D0.2" nVehContrib="6" flow="72.00" occupancy="0.84" speed="11.98" harmonicMeanSpeed="11.96" length="5.00" nVehEntered="6"/>
    <interval begin="0.00" end="300.00" id="1_actuated_program_D1.0" nVehContrib="22" flow="264.00" occupancy="7.40" speed="9.96" harmonicMeanSpeed="4.96" length="5.00" nVehEntered="22"/>
    <interval begin="0.00" end="300.00" id="1_actuated_program_D1.1" nVehContrib="14" flow="168.00" occupancy="8.70" speed="8.43" harmonicMeanSpeed="2.72" length="5.00" nVehEntered="15"/>
    <interval begin="0.00" end="300.00" id="1_actuated_program_D1.2" nVehContrib="6" flow="72.00" occupancy="0.83" speed="12.13" harmonicMeanSpeed="12.11" length="5.00" nVehEntered="6"/>
    <interval begin="0.00" end="300.00" id="1_actuated_program_D2.0" nVehContrib="24" flow="288.00" occupancy="11.81" speed="10.12" harmonicMeanSpeed="3.39" length="5.00" nVehEntered="24"/>
    <interval begin="0.00" end="300.00" id="1_actuated_program_D2.1" nVehContrib="19" flow="228.00" occupancy="6.76" speed="8.71" harmonicMeanSpeed="4.68" length="5.00" nVehEntered="19"/>
    <interval begin="0.00" end="300.00" id="1_actuated_program_D2.2" nVehContrib="6" flow="72.00" occupancy="0.84" speed="12.00" harmonicMeanSpeed="11.94" length="5.00" nVehEntered="6"/>
    <interval begin="0.00" end="300.00" id="1_actuated_program_D3.0" nVehContrib="21" flow="252.00" occupancy="6.96" speed="11.14" harmonicMeanSpeed="10.73" length="5.00" nVehEntered="24"/>
    <interval begin="0.00" end="300.00" id="1_actuated_program_D3.1" nVehContrib="17" flow="204.00" occupancy="5.18" speed="8.70" harmonicMeanSpeed="7.68" length="5.00" nVehEntered="19"/>
    <interval begin="0.00" end="300.00" id="1_actuated_program_D3.2" nVehContrib="6" flow="72.00" occupancy="0.89" speed="11.41" harmonicMeanSpeed="11.25" length="5.00" nVehEntered="6"/>
    <interval begin="300.00" end="600.00" id="1_actuated_program_D0.0" nVehContrib="21" flow="252.00" occupancy="21.13" speed="6.40" harmonicMeanSpeed="1.75" length="5.00" nVehEntered="23"/>
    <interval begin="300.00" end="600.00" id="1_actuated_program_D0.1" nVehContrib="30" flow="360.00" occupancy="19.91" speed="8.13" harmonicMeanSpeed="2.64" length="5.00" nVehEntered="31"/>
    <interval begin="300.00" end="600.00" id="1_actuated_program_D0.2" nVehContrib="8" flow="96.00" occupancy="1.28" speed="11.05" harmonicMeanSpeed="10.39" length="5.00" nVehEntered="8"/>
    <interval begin="300.00" end="600.00" id="1_actuated_program_D1.0" nVehContrib="11" flow="132.00" occupancy="1.74" speed="11.44" harmonicMeanSpeed="10.51" length="5.00" nVehEntered="11"/>
    <interval begin="300.00" end="600.00" id="1_actuated_program_D1.1" nVehContrib="26" flow="312.00" occupancy="6.74" speed="9.60" harmonicMeanSpeed="7.56" length="5.00" nVehEntered="27"/>
    <interval begin="300.00" end="600.00" id="1_actuated_program_D1.2" nVehContrib="2" flow="24.00" occupancy="0.43" speed="10.99" harmonicMeanSpeed="10.75" length="5.00" nVehEntered="3"/>
    <interval begin="300.00" end="600.00" id="1_actuated_program_D2.0" nVehContrib="25" flow="300.00" occupancy="14.79" speed="9.53" harmonicMeanSpeed="2.86" length="5.00" nVehEntered="27"/>
    <interval begin="300.00" end="600.00" id="1_actuated_program_D2.1" nVehContrib="21" flow="252.00" occupancy="14.34" speed="7.50" harmonicMeanSpeed="2.63" length="5.00" nVehEntered="22"/>
    <interval begin="300.00" end="600.00" id="1_actuated_program_D2.2" nVehContrib="5" flow="60.00" occupancy="0.75" speed="11.33" harmonicMeanSpeed="11.15" length="5.00" nVehEntered="5"/>
    <interval begin="300.00" end="600.00" id="1_actuated_program_D3.0" nVehContrib="27" flow="324.00" occupancy="29.81" speed="8.21" harmonicMeanSpeed="1.75" length="5.00" nVehEntered="28"/>
    <interval begin="300.00" end="600.00" id="1_actuated_program_D3.1" nVehContrib="23" flow="276.00" occupancy="22.14" speed="7.41" harmonicMeanSpeed="1.86" length="5.00" nVehEntered="23"/>
    <interval begin="300.00" end="600.00" id="1_actuated_program_D3.2" nVehContrib="4" flow="48.00" occupancy="0.55" speed="12.21" harmonicMeanSpeed="12.20" length="5.00" nVehEntered="4"/>
    <interval begin="600.00" end="900.00" id="1_actuated_program_D0.0" nVehContrib="27" flow="324.00" occupancy="35.33" speed="8.34" harmonicMeanSpeed="2.19" length="5.00" nVehEntered="28"/>
    <interval begin="600.00" end="900.00" id="1_actuated_program_D0.1" nVehContrib="25" flow="300.00" occupancy="37.19" speed="7.50" harmonicMeanSpeed="1.87" length="5.00" nVehEntered="27"/>
    <interval begin="600.00" end="900.00" id="1_actuated_program_D0.2" nVehContrib="9" flow="108.00" occupancy="5.90" speed="8.39" harmonicMeanSpeed="2.54" length="5.00" nVehEntered="9"/>
    <interval begin="600.00" end="900.00" id="1_actuated_program_D1.0" nVehContrib="39" flow="468.00" occupancy="22.81" speed="8.31" harmonicMeanSpeed="2.87" length="5.00" nVehEntered="40"/>
    <interval begin="600.00" end="900.00" id="1_actuated_program_D1.1" nVehContrib="25" flow="300.00" occupancy="22.26" speed="7.53" harmonicMeanSpeed="2.00" length="5.00" nVehEntered="27"/>
    <interval begin="600.00" end="900.00" id="1_actuated_program_D1.2" nVehContrib="9" flow="108.00" occupancy="1.32" speed="11.02" harmonicMeanSpeed="10.45" length="5.00" nVehEntered="8"/>
    <interval begin="600.00" end="900.00" id="1_actuated_program_D2.0" nVehContrib="28" flow="336.00" occupancy="30.91" speed="8.57" harmonicMeanSpeed="3.02" length="5.00" nVehEntered="29"/>
    <interval begin="600.00" end="900.00" id="1_actuated_program_D2.1" nVehContrib="24" flow="288.00" occupancy="31.52" speed="8.00" harmonicMeanSpeed="2.18" length="5.00" nVehEntered="25"/>
    <interval begin="600.00" end="900.00" id="1_actuated_program_D2.2" nVehContrib="9" flow="108.00" occupancy="1.27" speed="11.88" harmonicMeanSpeed="11.80" length="5.00" nVehEntered="9"/>
    <interval begin="600.00" end="900.00" id="1_actuated_program_D3.0" nVehContrib="38" flow="456.00" occupancy="38.44" speed="7.30" harmonicMeanSpeed="1.41" length="5.00" nVehEntered="37"/>
    <interval begin="600.00" end="900.00" id="1_actuated_program_D3.1" nVehContrib="30" flow="360.00" occupancy="36.03" speed="7.53" harmonicMeanSpeed="1.30" length="5.00" nVehEntered="30"/>
    <interval begin="600.00" end="900.00" id="1_actuated_program_D3.2" nVehContrib="9" flow="108.00" occupancy="1.24" speed="12.08" harmonicMeanSpeed="12.07" length="5.00" nVehEntered="9"/>
    <interval begin="900.00" end="1083.50" id="1_actuated_program_D0.0" nVehContrib="4" flow="78.47" occupancy="4.42" speed="3.67" harmonicMeanSpeed="0.38" length="5.00" nVehEntered="3"/>
    <interval begin="900.00" end="1083.50" id="1_actuated_program_D0.1" nVehContrib="4" flow="78.47" occupancy="4.65" speed="3.59" harmonicMeanSpeed="0.39" length="5.00" nVehEntered="3"/>
    <interval begin="900.00" end="1083.50" id="1_actuated_program_D0.2" nVehContrib="0" flow="0.00" occupancy="0.00" speed="-1.00" harmonicMeanSpeed="-1.00" length="-1.00" nVehEntered="0"/>
    <interval begin="900.00" end="1083.50" id="1_actuated_program_D1.0" nVehContrib="2" flow="39.24" occupancy="0.54" speed="10.22" harmonicMeanSpeed="10.03" length="5.00" nVehEntered="2"/>
    <interval begin="900.00" end="1083.50" id="1_actuated_program_D1.1" nVehContrib="2" flow="39.24" occupancy="0.54" speed="10.23" harmonicMeanSpeed="10.12" length="5.00" nVehEntered="2"/>
    <interval begin="900.00" end="1083.50" id="1_actuated_program_D1.2" nVehContrib="0" flow="0.00" occupancy="0.00" speed="-1.00" harmonicMeanSpeed="-1.00" length="-1.00" nVehEntered="0"/>
    <interval begin="900.00" end="1083.50" id="1_actuated_program_D2.0" nVehContrib="7" flow="137.33" occupancy="5.24" speed="5.85" harmonicMeanSpeed="0.62" length="5.00" nVehEntered="6"/>
    <interval begin="900.00" end="1083.50" id="1_actuated_program_D2.1" nVehContrib="6" flow="117.71" occupancy="5.53" speed="4.86" harmonicMeanSpeed="0.60" length="5.00" nVehEntered="5"/>
    <interval begin="900.00" end="1083.50" id="1_actuated_program_D2.2" nVehContrib="0" flow="0.00" occupancy="0.00" speed="-1.00" harmonicMeanSpeed="-1.00" length="-1.00" nVehEntered="0"/>
    <interval begin="900.00" end="1083.50" id="1_actuated_program_D3.0" nVehContrib="2" flow="39.24" occupancy="19.97" speed="2.70" harmonicMeanSpeed="0.27" length="5.00" nVehEntered="2"/>
    <interval begin="900.00" end="1083.50" id="1_actuated_program_D3.1" nVehContrib="1" flow="19.62" occupancy="0.30" speed="9.08" harmonicMeanSpeed="9.08" length="5.00" nVehEntered="1"/>
    <interval begin="900.00" end="1083.50" id="1_actuated_program_D3.2" nVehContrib="0" flow="0.00" occupancy="0.00" speed="-1.00" harmonicMeanSpeed="-1.00" length="-1.00" nVehEntered="0"/>
</detector>
