<?xml version="1.0" encoding="UTF-8"?>

<!-- generated on 2025-08-31 19:59:50 by Eclipse SUMO GUI Version 1.22.0
<sumoConfiguration xmlns:xsi="http://www.w3.org/2001/XMLSchema-instance" xsi:noNamespaceSchemaLocation="http://sumo.dlr.de/xsd/sumoConfiguration.xsd">

    <input>
        <net-file value="/home/naderian/Desktop/Shakiba/MMSVCC/environment/network_model/single_intersection_bike_Concurrent_(permitted_right).net.xml"/>
        <route-files value="/home/naderian/Desktop/Shakiba/MMSVCC/environment/network_model/single_intersection.rou.xml"/>
        <additional-files value="/home/naderian/Desktop/Shakiba/MMSVCC/environment/network_model/single_intersection.add_actuated_(permitted_right).xml"/>
    </input>

    <output>
        <queue-output value="/home/naderian/Desktop/Shakiba/MMSVCC/environment/simulation_data/single_intersection/queues_actuated_asymmetric_pene_25.xml"/>
        <tripinfo-output value="/home/naderian/Desktop/Shakiba/MMSVCC/environment/simulation_data/single_intersection/tripinfo_actuated_asymmetric_pene_25.xml"/>
    </output>

    <time>
        <begin value="0"/>
        <step-length value="0.5"/>
    </time>

    <processing>
        <waiting-time-memory value="1000"/>
    </processing>

    <report>
        <verbose value="true"/>
        <no-step-log value="true"/>
    </report>

    <ssm_device>
        <device.ssm.file value="/home/naderian/Desktop/Shakiba/MMSVCC/environment/simulation_data/single_intersection/SSMinfo_actuated_pene_25.xml"/>
    </ssm_device>

    <traci_server>
        <remote-port value="37461"/>
    </traci_server>

    <gui_only>
        <start value="true"/>
    </gui_only>

</sumoConfiguration>
-->

<detector xmlns:xsi="http://www.w3.org/2001/XMLSchema-instance" xsi:noNamespaceSchemaLocation="http://sumo.dlr.de/xsd/det_e1_file.xsd">
    <interval begin="0.00" end="148.00" id="1_actuated_program_D0.0" nVehContrib="1" flow="24.32" occupancy="0.23" speed="4.74" harmonicMeanSpeed="4.74" length="1.60" nVehEntered="1"/>
    <interval begin="0.00" end="148.00" id="1_actuated_program_D1.0" nVehContrib="0" flow="0.00" occupancy="0.00" speed="-1.00" harmonicMeanSpeed="-1.00" length="-1.00" nVehEntered="0"/>
    <interval begin="0.00" end="148.00" id="1_actuated_program_D2.0" nVehContrib="1" flow="24.32" occupancy="0.21" speed="5.24" harmonicMeanSpeed="5.24" length="1.60" nVehEntered="1"/>
    <interval begin="0.00" end="148.00" id="1_actuated_program_D2.1" nVehContrib="6" flow="145.95" occupancy="1.56" speed="11.28" harmonicMeanSpeed="10.23" length="4.43" nVehEntered="6"/>
    <interval begin="0.00" end="148.00" id="1_actuated_program_D2.2" nVehContrib="4" flow="97.30" occupancy="1.25" speed="11.21" harmonicMeanSpeed="10.81" length="5.00" nVehEntered="4"/>
    <interval begin="0.00" end="148.00" id="1_actuated_program_D2.3" nVehContrib="2" flow="48.65" occupancy="0.55" speed="12.40" harmonicMeanSpeed="12.39" length="5.00" nVehEntered="2"/>
    <interval begin="0.00" end="148.00" id="1_actuated_program_D3.0" nVehContrib="2" flow="48.65" occupancy="0.38" speed="5.74" harmonicMeanSpeed="5.74" length="1.60" nVehEntered="2"/>
    <interval begin="0.00" end="148.00" id="1_actuated_program_D4.0" nVehContrib="0" flow="0.00" occupancy="0.00" speed="-1.00" harmonicMeanSpeed="-1.00" length="-1.00" nVehEntered="0"/>
    <interval begin="0.00" end="148.00" id="1_actuated_program_D5.0" nVehContrib="0" flow="0.00" occupancy="0.00" speed="-1.00" harmonicMeanSpeed="-1.00" length="-1.00" nVehEntered="0"/>
    <interval begin="0.00" end="148.00" id="1_actuated_program_D5.1" nVehContrib="6" flow="145.95" occupancy="1.50" speed="8.52" harmonicMeanSpeed="6.98" length="3.30" nVehEntered="6"/>
    <interval begin="0.00" end="148.00" id="1_actuated_program_D5.2" nVehContrib="4" flow="97.30" occupancy="1.03" speed="10.52" harmonicMeanSpeed="9.40" length="4.15" nVehEntered="4"/>
    <interval begin="0.00" end="148.00" id="1_actuated_program_D5.3" nVehContrib="1" flow="24.32" occupancy="0.28" speed="12.06" harmonicMeanSpeed="12.06" length="5.00" nVehEntered="1"/>
    <interval begin="0.00" end="148.00" id="1_actuated_program_D6.0" nVehContrib="3" flow="72.97" occupancy="0.62" speed="5.27" harmonicMeanSpeed="5.25" length="1.60" nVehEntered="3"/>
    <interval begin="0.00" end="148.00" id="1_actuated_program_D7.0" nVehContrib="1" flow="24.32" occupancy="0.19" speed="5.74" harmonicMeanSpeed="5.74" length="1.60" nVehEntered="1"/>
    <interval begin="0.00" end="148.00" id="1_actuated_program_D8.0" nVehContrib="0" flow="0.00" occupancy="0.00" speed="-1.00" harmonicMeanSpeed="-1.00" length="-1.00" nVehEntered="0"/>
    <interval begin="0.00" end="148.00" id="1_actuated_program_D8.1" nVehContrib="12" flow="291.89" occupancy="15.59" speed="8.00" harmonicMeanSpeed="2.47" length="4.43" nVehEntered="12"/>
    <interval begin="0.00" end="148.00" id="1_actuated_program_D8.2" nVehContrib="7" flow="170.27" occupancy="17.34" speed="6.22" harmonicMeanSpeed="1.36" length="5.00" nVehEntered="7"/>
    <interval begin="0.00" end="148.00" id="1_actuated_program_D8.3" nVehContrib="1" flow="24.32" occupancy="0.27" speed="12.46" harmonicMeanSpeed="12.46" length="5.00" nVehEntered="1"/>
    <interval begin="0.00" end="148.00" id="1_actuated_program_D9.0" nVehContrib="6" flow="145.95" occupancy="1.45" speed="4.59" harmonicMeanSpeed="4.47" length="1.60" nVehEntered="6"/>
    <interval begin="0.00" end="148.00" id="1_actuated_program_D10.0" nVehContrib="1" flow="24.32" occupancy="0.20" speed="5.29" harmonicMeanSpeed="5.29" length="1.60" nVehEntered="1"/>
    <interval begin="0.00" end="148.00" id="1_actuated_program_D11.0" nVehContrib="3" flow="72.97" occupancy="0.69" speed="4.84" harmonicMeanSpeed="4.72" length="1.60" nVehEntered="3"/>
    <interval begin="0.00" end="148.00" id="1_actuated_program_D11.1" nVehContrib="12" flow="291.89" occupancy="4.60" speed="8.27" harmonicMeanSpeed="7.14" length="4.15" nVehEntered="13"/>
    <interval begin="0.00" end="148.00" id="1_actuated_program_D11.2" nVehContrib="10" flow="243.24" occupancy="6.07" speed="9.27" harmonicMeanSpeed="8.29" length="5.00" nVehEntered="11"/>
    <interval begin="0.00" end="148.00" id="1_actuated_program_D11.3" nVehContrib="1" flow="24.32" occupancy="0.28" speed="12.25" harmonicMeanSpeed="12.25" length="5.00" nVehEntered="1"/>
</detector>
