<?xml version="1.0" encoding="UTF-8"?>

<!-- generated on 2025-05-26 23:11:57 by Eclipse SUMO GUI Version 1.22.0
<sumoConfiguration xmlns:xsi="http://www.w3.org/2001/XMLSchema-instance" xsi:noNamespaceSchemaLocation="http://sumo.dlr.de/xsd/sumoConfiguration.xsd">

    <input>
        <net-file value="/home/naderian/Desktop/Shakiba/MMSVCC/environment/network_model/single_intersection_bike.net.xml"/>
        <route-files value="/home/naderian/Desktop/Shakiba/MMSVCC/environment/network_model/single_intersection.rou.xml"/>
        <additional-files value="/home/naderian/Desktop/Shakiba/MMSVCC/environment/network_model/single_intersection.add_actuated.xml"/>
    </input>

    <output>
        <queue-output value="/home/naderian/Desktop/Shakiba/MMSVCC/environment/simulation_data/single_intersection/queues_actuated_pene_100.xml"/>
        <tripinfo-output value="/home/naderian/Desktop/Shakiba/MMSVCC/environment/simulation_data/single_intersection/tripinfo_actuated_pene_100.xml"/>
    </output>

    <time>
        <begin value="0"/>
        <step-length value="0.5"/>
    </time>

    <processing>
        <waiting-time-memory value="1000"/>
    </processing>

    <report>
        <verbose value="true"/>
        <no-step-log value="true"/>
    </report>

    <ssm_device>
        <device.ssm.file value="/home/naderian/Desktop/Shakiba/MMSVCC/environment/simulation_data/single_intersection/SSMinfo_actuated_pene_100.xml"/>
    </ssm_device>

    <traci_server>
        <remote-port value="46607"/>
    </traci_server>

    <gui_only>
        <start value="true"/>
    </gui_only>

</sumoConfiguration>
-->

<detector xmlns:xsi="http://www.w3.org/2001/XMLSchema-instance" xsi:noNamespaceSchemaLocation="http://sumo.dlr.de/xsd/det_e1_file.xsd">
    <interval begin="0.00" end="300.00" id="1_actuated_program_D0.0" nVehContrib="7" flow="84.00" occupancy="0.76" speed="5.08" harmonicMeanSpeed="4.93" length="1.60" nVehEntered="7"/>
    <interval begin="0.00" end="300.00" id="1_actuated_program_D0.1" nVehContrib="20" flow="240.00" occupancy="7.61" speed="8.52" harmonicMeanSpeed="4.38" length="5.00" nVehEntered="20"/>
    <interval begin="0.00" end="300.00" id="1_actuated_program_D0.2" nVehContrib="21" flow="252.00" occupancy="15.70" speed="8.94" harmonicMeanSpeed="2.35" length="5.00" nVehEntered="24"/>
    <interval begin="0.00" end="300.00" id="1_actuated_program_D0.3" nVehContrib="8" flow="96.00" occupancy="1.11" speed="9.80" harmonicMeanSpeed="8.33" length="4.15" nVehEntered="8"/>
    <interval begin="0.00" end="300.00" id="1_actuated_program_D1.0" nVehContrib="16" flow="192.00" occupancy="2.00" speed="4.60" harmonicMeanSpeed="4.26" length="1.60" nVehEntered="16"/>
    <interval begin="0.00" end="300.00" id="1_actuated_program_D1.1" nVehContrib="17" flow="204.00" occupancy="16.36" speed="8.93" harmonicMeanSpeed="1.70" length="4.60" nVehEntered="17"/>
    <interval begin="0.00" end="300.00" id="1_actuated_program_D1.2" nVehContrib="21" flow="252.00" occupancy="17.13" speed="9.39" harmonicMeanSpeed="2.04" length="5.00" nVehEntered="21"/>
    <interval begin="0.00" end="300.00" id="1_actuated_program_D1.3" nVehContrib="6" flow="72.00" occupancy="0.84" speed="11.98" harmonicMeanSpeed="11.97" length="5.00" nVehEntered="6"/>
    <interval begin="0.00" end="300.00" id="1_actuated_program_D2.0" nVehContrib="7" flow="84.00" occupancy="0.79" speed="4.87" harmonicMeanSpeed="4.75" length="1.60" nVehEntered="7"/>
    <interval begin="0.00" end="300.00" id="1_actuated_program_D2.1" nVehContrib="22" flow="264.00" occupancy="15.41" speed="7.54" harmonicMeanSpeed="3.81" length="4.85" nVehEntered="23"/>
    <interval begin="0.00" end="300.00" id="1_actuated_program_D2.2" nVehContrib="19" flow="228.00" occupancy="14.78" speed="8.41" harmonicMeanSpeed="4.06" length="5.00" nVehEntered="22"/>
    <interval begin="0.00" end="300.00" id="1_actuated_program_D2.3" nVehContrib="7" flow="84.00" occupancy="1.04" speed="10.49" harmonicMeanSpeed="9.34" length="4.51" nVehEntered="7"/>
    <interval begin="0.00" end="300.00" id="1_actuated_program_D3.0" nVehContrib="28" flow="336.00" occupancy="14.03" speed="2.80" harmonicMeanSpeed="1.22" length="1.60" nVehEntered="30"/>
    <interval begin="0.00" end="300.00" id="1_actuated_program_D3.1" nVehContrib="18" flow="216.00" occupancy="14.56" speed="5.76" harmonicMeanSpeed="1.90" length="4.06" nVehEntered="18"/>
    <interval begin="0.00" end="300.00" id="1_actuated_program_D3.2" nVehContrib="30" flow="360.00" occupancy="13.97" speed="7.36" harmonicMeanSpeed="3.55" length="4.89" nVehEntered="31"/>
    <interval begin="0.00" end="300.00" id="1_actuated_program_D3.3" nVehContrib="8" flow="96.00" occupancy="1.20" speed="9.70" harmonicMeanSpeed="8.23" length="4.15" nVehEntered="8"/>
    <interval begin="300.00" end="600.00" id="1_actuated_program_D0.0" nVehContrib="16" flow="192.00" occupancy="1.88" speed="4.78" harmonicMeanSpeed="4.54" length="1.60" nVehEntered="16"/>
    <interval begin="300.00" end="600.00" id="1_actuated_program_D0.1" nVehContrib="16" flow="192.00" occupancy="60.50" speed="3.20" harmonicMeanSpeed="0.45" length="5.00" nVehEntered="18"/>
    <interval begin="300.00" end="600.00" id="1_actuated_program_D0.2" nVehContrib="36" flow="432.00" occupancy="54.82" speed="6.45" harmonicMeanSpeed="1.09" length="5.00" nVehEntered="35"/>
    <interval begin="300.00" end="600.00" id="1_actuated_program_D0.3" nVehContrib="11" flow="132.00" occupancy="2.77" speed="6.58" harmonicMeanSpeed="5.12" length="3.76" nVehEntered="11"/>
    <interval begin="300.00" end="600.00" id="1_actuated_program_D1.0" nVehContrib="21" flow="252.00" occupancy="10.48" speed="2.73" harmonicMeanSpeed="1.63" length="1.60" nVehEntered="23"/>
    <interval begin="300.00" end="600.00" id="1_actuated_program_D1.1" nVehContrib="13" flow="156.00" occupancy="4.26" speed="6.40" harmonicMeanSpeed="4.70" length="4.48" nVehEntered="13"/>
    <interval begin="300.00" end="600.00" id="1_actuated_program_D1.2" nVehContrib="25" flow="300.00" occupancy="17.38" speed="8.48" harmonicMeanSpeed="3.69" length="5.00" nVehEntered="29"/>
    <interval begin="300.00" end="600.00" id="1_actuated_program_D1.3" nVehContrib="2" flow="24.00" occupancy="0.27" speed="12.32" harmonicMeanSpeed="12.31" length="5.00" nVehEntered="2"/>
    <interval begin="300.00" end="600.00" id="1_actuated_program_D2.0" nVehContrib="13" flow="156.00" occupancy="2.92" speed="3.87" harmonicMeanSpeed="2.37" length="1.60" nVehEntered="13"/>
    <interval begin="300.00" end="600.00" id="1_actuated_program_D2.1" nVehContrib="23" flow="276.00" occupancy="21.66" speed="5.84" harmonicMeanSpeed="1.46" length="5.00" nVehEntered="24"/>
    <interval begin="300.00" end="600.00" id="1_actuated_program_D2.2" nVehContrib="27" flow="324.00" occupancy="30.00" speed="7.75" harmonicMeanSpeed="1.27" length="4.87" nVehEntered="26"/>
    <interval begin="300.00" end="600.00" id="1_actuated_program_D2.3" nVehContrib="5" flow="60.00" occupancy="0.67" speed="12.43" harmonicMeanSpeed="12.42" length="5.00" nVehEntered="5"/>
    <interval begin="300.00" end="600.00" id="1_actuated_program_D3.0" nVehContrib="22" flow="264.00" occupancy="22.21" speed="1.17" harmonicMeanSpeed="0.49" length="1.60" nVehEntered="21"/>
    <interval begin="300.00" end="600.00" id="1_actuated_program_D3.1" nVehContrib="18" flow="216.00" occupancy="28.65" speed="2.76" harmonicMeanSpeed="1.02" length="3.87" nVehEntered="20"/>
    <interval begin="300.00" end="600.00" id="1_actuated_program_D3.2" nVehContrib="28" flow="336.00" occupancy="41.93" speed="5.21" harmonicMeanSpeed="1.11" length="4.88" nVehEntered="29"/>
    <interval begin="300.00" end="600.00" id="1_actuated_program_D3.3" nVehContrib="5" flow="60.00" occupancy="0.82" speed="8.94" harmonicMeanSpeed="8.17" length="4.32" nVehEntered="5"/>
    <interval begin="600.00" end="900.00" id="1_actuated_program_D0.0" nVehContrib="12" flow="144.00" occupancy="1.37" speed="4.92" harmonicMeanSpeed="4.67" length="1.60" nVehEntered="12"/>
    <interval begin="600.00" end="900.00" id="1_actuated_program_D0.1" nVehContrib="10" flow="120.00" occupancy="65.86" speed="1.33" harmonicMeanSpeed="0.26" length="5.00" nVehEntered="11"/>
    <interval begin="600.00" end="900.00" id="1_actuated_program_D0.2" nVehContrib="38" flow="456.00" occupancy="72.03" speed="8.29" harmonicMeanSpeed="0.88" length="5.00" nVehEntered="39"/>
    <interval begin="600.00" end="900.00" id="1_actuated_program_D0.3" nVehContrib="11" flow="132.00" occupancy="3.35" speed="7.46" harmonicMeanSpeed="5.07" length="4.69" nVehEntered="11"/>
    <interval begin="600.00" end="900.00" id="1_actuated_program_D1.0" nVehContrib="19" flow="228.00" occupancy="4.26" speed="3.39" harmonicMeanSpeed="2.38" length="1.60" nVehEntered="19"/>
    <interval begin="600.00" end="900.00" id="1_actuated_program_D1.1" nVehContrib="15" flow="180.00" occupancy="64.29" speed="2.51" harmonicMeanSpeed="0.49" length="5.00" nVehEntered="16"/>
    <interval begin="600.00" end="900.00" id="1_actuated_program_D1.2" nVehContrib="41" flow="492.00" occupancy="54.05" speed="7.88" harmonicMeanSpeed="1.62" length="5.00" nVehEntered="41"/>
    <interval begin="600.00" end="900.00" id="1_actuated_program_D1.3" nVehContrib="11" flow="132.00" occupancy="3.34" speed="8.36" harmonicMeanSpeed="4.90" length="4.38" nVehEntered="11"/>
    <interval begin="600.00" end="900.00" id="1_actuated_program_D2.0" nVehContrib="8" flow="96.00" occupancy="0.85" speed="5.14" harmonicMeanSpeed="5.02" length="1.60" nVehEntered="8"/>
    <interval begin="600.00" end="900.00" id="1_actuated_program_D2.1" nVehContrib="14" flow="168.00" occupancy="54.42" speed="6.34" harmonicMeanSpeed="0.43" length="5.00" nVehEntered="14"/>
    <interval begin="600.00" end="900.00" id="1_actuated_program_D2.2" nVehContrib="36" flow="432.00" occupancy="60.38" speed="7.48" harmonicMeanSpeed="0.99" length="5.00" nVehEntered="36"/>
    <interval begin="600.00" end="900.00" id="1_actuated_program_D2.3" nVehContrib="8" flow="96.00" occupancy="1.13" speed="11.91" harmonicMeanSpeed="11.85" length="5.00" nVehEntered="8"/>
    <interval begin="600.00" end="900.00" id="1_actuated_program_D3.0" nVehContrib="25" flow="300.00" occupancy="52.55" speed="1.92" harmonicMeanSpeed="0.25" length="1.60" nVehEntered="25"/>
    <interval begin="600.00" end="900.00" id="1_actuated_program_D3.1" nVehContrib="11" flow="132.00" occupancy="76.89" speed="1.18" harmonicMeanSpeed="0.35" length="5.00" nVehEntered="13"/>
    <interval begin="600.00" end="900.00" id="1_actuated_program_D3.2" nVehContrib="40" flow="480.00" occupancy="62.36" speed="7.40" harmonicMeanSpeed="1.57" length="5.00" nVehEntered="41"/>
    <interval begin="600.00" end="900.00" id="1_actuated_program_D3.3" nVehContrib="10" flow="120.00" occupancy="1.77" speed="9.48" harmonicMeanSpeed="8.41" length="4.66" nVehEntered="10"/>
    <interval begin="900.00" end="1200.00" id="1_actuated_program_D0.0" nVehContrib="4" flow="48.00" occupancy="0.40" speed="5.30" harmonicMeanSpeed="5.28" length="1.60" nVehEntered="4"/>
    <interval begin="900.00" end="1200.00" id="1_actuated_program_D0.1" nVehContrib="4" flow="48.00" occupancy="29.83" speed="0.97" harmonicMeanSpeed="0.22" length="5.00" nVehEntered="3"/>
    <interval begin="900.00" end="1200.00" id="1_actuated_program_D0.2" nVehContrib="8" flow="96.00" occupancy="2.11" speed="6.37" harmonicMeanSpeed="5.34" length="5.00" nVehEntered="7"/>
    <interval begin="900.00" end="1200.00" id="1_actuated_program_D0.3" nVehContrib="0" flow="0.00" occupancy="0.00" speed="-1.00" harmonicMeanSpeed="-1.00" length="-1.00" nVehEntered="0"/>
    <interval begin="900.00" end="1200.00" id="1_actuated_program_D1.0" nVehContrib="4" flow="48.00" occupancy="1.69" speed="2.49" harmonicMeanSpeed="1.26" length="1.60" nVehEntered="4"/>
    <interval begin="900.00" end="1200.00" id="1_actuated_program_D1.1" nVehContrib="6" flow="72.00" occupancy="13.71" speed="1.81" harmonicMeanSpeed="0.36" length="5.00" nVehEntered="5"/>
    <interval begin="900.00" end="1200.00" id="1_actuated_program_D1.2" nVehContrib="7" flow="84.00" occupancy="15.70" speed="4.58" harmonicMeanSpeed="0.39" length="5.00" nVehEntered="6"/>
    <interval begin="900.00" end="1200.00" id="1_actuated_program_D1.3" nVehContrib="0" flow="0.00" occupancy="0.00" speed="-1.00" harmonicMeanSpeed="-1.00" length="-1.00" nVehEntered="0"/>
    <interval begin="900.00" end="1200.00" id="1_actuated_program_D2.0" nVehContrib="0" flow="0.00" occupancy="0.00" speed="-1.00" harmonicMeanSpeed="-1.00" length="-1.00" nVehEntered="0"/>
    <interval begin="900.00" end="1200.00" id="1_actuated_program_D2.1" nVehContrib="6" flow="72.00" occupancy="27.43" speed="2.02" harmonicMeanSpeed="0.36" length="5.00" nVehEntered="6"/>
    <interval begin="900.00" end="1200.00" id="1_actuated_program_D2.2" nVehContrib="9" flow="108.00" occupancy="34.17" speed="5.09" harmonicMeanSpeed="0.44" length="5.00" nVehEntered="9"/>
    <interval begin="900.00" end="1200.00" id="1_actuated_program_D2.3" nVehContrib="2" flow="24.00" occupancy="0.57" speed="4.41" harmonicMeanSpeed="4.24" length="3.30" nVehEntered="2"/>
    <interval begin="900.00" end="1200.00" id="1_actuated_program_D3.0" nVehContrib="28" flow="336.00" occupancy="20.29" speed="2.82" harmonicMeanSpeed="0.74" length="1.60" nVehEntered="28"/>
    <interval begin="900.00" end="1200.00" id="1_actuated_program_D3.1" nVehContrib="9" flow="108.00" occupancy="61.77" speed="0.95" harmonicMeanSpeed="0.18" length="5.00" nVehEntered="8"/>
    <interval begin="900.00" end="1200.00" id="1_actuated_program_D3.2" nVehContrib="20" flow="240.00" occupancy="18.57" speed="6.82" harmonicMeanSpeed="0.84" length="4.66" nVehEntered="19"/>
    <interval begin="900.00" end="1200.00" id="1_actuated_program_D3.3" nVehContrib="0" flow="0.00" occupancy="0.00" speed="-1.00" harmonicMeanSpeed="-1.00" length="-1.00" nVehEntered="0"/>
    <interval begin="1200.00" end="1201.50" id="1_actuated_program_D0.0" nVehContrib="0" flow="0.00" occupancy="0.00" speed="-1.00" harmonicMeanSpeed="-1.00" length="-1.00" nVehEntered="0"/>
    <interval begin="1200.00" end="1201.50" id="1_actuated_program_D0.1" nVehContrib="0" flow="0.00" occupancy="0.00" speed="-1.00" harmonicMeanSpeed="-1.00" length="-1.00" nVehEntered="0"/>
    <interval begin="1200.00" end="1201.50" id="1_actuated_program_D0.2" nVehContrib="0" flow="0.00" occupancy="0.00" speed="-1.00" harmonicMeanSpeed="-1.00" length="-1.00" nVehEntered="0"/>
    <interval begin="1200.00" end="1201.50" id="1_actuated_program_D0.3" nVehContrib="0" flow="0.00" occupancy="0.00" speed="-1.00" harmonicMeanSpeed="-1.00" length="-1.00" nVehEntered="0"/>
    <interval begin="1200.00" end="1201.50" id="1_actuated_program_D1.0" nVehContrib="0" flow="0.00" occupancy="0.00" speed="-1.00" harmonicMeanSpeed="-1.00" length="-1.00" nVehEntered="0"/>
    <interval begin="1200.00" end="1201.50" id="1_actuated_program_D1.1" nVehContrib="0" flow="0.00" occupancy="0.00" speed="-1.00" harmonicMeanSpeed="-1.00" length="-1.00" nVehEntered="0"/>
    <interval begin="1200.00" end="1201.50" id="1_actuated_program_D1.2" nVehContrib="0" flow="0.00" occupancy="0.00" speed="-1.00" harmonicMeanSpeed="-1.00" length="-1.00" nVehEntered="0"/>
    <interval begin="1200.00" end="1201.50" id="1_actuated_program_D1.3" nVehContrib="0" flow="0.00" occupancy="0.00" speed="-1.00" harmonicMeanSpeed="-1.00" length="-1.00" nVehEntered="0"/>
    <interval begin="1200.00" end="1201.50" id="1_actuated_program_D2.0" nVehContrib="0" flow="0.00" occupancy="0.00" speed="-1.00" harmonicMeanSpeed="-1.00" length="-1.00" nVehEntered="0"/>
    <interval begin="1200.00" end="1201.50" id="1_actuated_program_D2.1" nVehContrib="0" flow="0.00" occupancy="0.00" speed="-1.00" harmonicMeanSpeed="-1.00" length="-1.00" nVehEntered="0"/>
    <interval begin="1200.00" end="1201.50" id="1_actuated_program_D2.2" nVehContrib="0" flow="0.00" occupancy="0.00" speed="-1.00" harmonicMeanSpeed="-1.00" length="-1.00" nVehEntered="0"/>
    <interval begin="1200.00" end="1201.50" id="1_actuated_program_D2.3" nVehContrib="0" flow="0.00" occupancy="0.00" speed="-1.00" harmonicMeanSpeed="-1.00" length="-1.00" nVehEntered="0"/>
    <interval begin="1200.00" end="1201.50" id="1_actuated_program_D3.0" nVehContrib="0" flow="0.00" occupancy="0.00" speed="-1.00" harmonicMeanSpeed="-1.00" length="-1.00" nVehEntered="0"/>
    <interval begin="1200.00" end="1201.50" id="1_actuated_program_D3.1" nVehContrib="0" flow="0.00" occupancy="0.00" speed="-1.00" harmonicMeanSpeed="-1.00" length="-1.00" nVehEntered="0"/>
    <interval begin="1200.00" end="1201.50" id="1_actuated_program_D3.2" nVehContrib="0" flow="0.00" occupancy="0.00" speed="-1.00" harmonicMeanSpeed="-1.00" length="-1.00" nVehEntered="0"/>
    <interval begin="1200.00" end="1201.50" id="1_actuated_program_D3.3" nVehContrib="0" flow="0.00" occupancy="0.00" speed="-1.00" harmonicMeanSpeed="-1.00" length="-1.00" nVehEntered="0"/>
</detector>
