<?xml version="1.0" encoding="UTF-8"?>

<!-- generated on 2025-06-24 17:13:00 by Eclipse SUMO GUI Version 1.22.0
<sumoConfiguration xmlns:xsi="http://www.w3.org/2001/XMLSchema-instance" xsi:noNamespaceSchemaLocation="http://sumo.dlr.de/xsd/sumoConfiguration.xsd">

    <input>
        <net-file value="/home/naderian/Desktop/Shakiba/MMSVCC/environment/network_model/single_intersection_Concurrent_(delayed_turn).net.xml"/>
        <route-files value="/home/naderian/Desktop/Shakiba/MMSVCC/environment/network_model/single_intersection.rou.xml"/>
        <additional-files value="/home/naderian/Desktop/Shakiba/MMSVCC/environment/network_model/single_intersection.add_actuated_(delayed_turn).xml"/>
    </input>

    <output>
        <queue-output value="/home/naderian/Desktop/Shakiba/MMSVCC/environment/simulation_data/single_intersection/queues_actuated_symmetric_pene_100.xml"/>
        <tripinfo-output value="/home/naderian/Desktop/Shakiba/MMSVCC/environment/simulation_data/single_intersection/tripinfo_actuated_symmetric_pene_100.xml"/>
    </output>

    <time>
        <begin value="0"/>
        <step-length value="0.5"/>
    </time>

    <processing>
        <waiting-time-memory value="1000"/>
    </processing>

    <report>
        <verbose value="true"/>
        <no-step-log value="true"/>
    </report>

    <ssm_device>
        <device.ssm.file value="/home/naderian/Desktop/Shakiba/MMSVCC/environment/simulation_data/single_intersection/SSMinfo_actuated_pene_100.xml"/>
    </ssm_device>

    <traci_server>
        <remote-port value="40461"/>
    </traci_server>

    <gui_only>
        <start value="true"/>
    </gui_only>

</sumoConfiguration>
-->

<detector xmlns:xsi="http://www.w3.org/2001/XMLSchema-instance" xsi:noNamespaceSchemaLocation="http://sumo.dlr.de/xsd/det_e1_file.xsd">
    <interval begin="0.00" end="300.00" id="1_actuated_program_D0.0" nVehContrib="5" flow="60.00" occupancy="0.69" speed="12.15" harmonicMeanSpeed="12.14" length="5.00" nVehEntered="5"/>
    <interval begin="0.00" end="300.00" id="1_actuated_program_D0.1" nVehContrib="36" flow="432.00" occupancy="24.33" speed="9.34" harmonicMeanSpeed="2.48" length="5.00" nVehEntered="37"/>
    <interval begin="0.00" end="300.00" id="1_actuated_program_D0.2" nVehContrib="6" flow="72.00" occupancy="0.86" speed="11.74" harmonicMeanSpeed="11.60" length="5.00" nVehEntered="6"/>
    <interval begin="0.00" end="300.00" id="1_actuated_program_D1.0" nVehContrib="7" flow="84.00" occupancy="0.97" speed="12.11" harmonicMeanSpeed="12.08" length="5.00" nVehEntered="7"/>
    <interval begin="0.00" end="300.00" id="1_actuated_program_D1.1" nVehContrib="27" flow="324.00" occupancy="36.19" speed="7.93" harmonicMeanSpeed="1.24" length="5.00" nVehEntered="27"/>
    <interval begin="0.00" end="300.00" id="1_actuated_program_D1.2" nVehContrib="6" flow="72.00" occupancy="0.81" speed="12.37" harmonicMeanSpeed="12.37" length="5.00" nVehEntered="6"/>
    <interval begin="0.00" end="300.00" id="1_actuated_program_D2.0" nVehContrib="10" flow="120.00" occupancy="1.39" speed="12.10" harmonicMeanSpeed="12.01" length="5.00" nVehEntered="10"/>
    <interval begin="0.00" end="300.00" id="1_actuated_program_D2.1" nVehContrib="33" flow="396.00" occupancy="23.53" speed="8.75" harmonicMeanSpeed="2.34" length="5.00" nVehEntered="33"/>
    <interval begin="0.00" end="300.00" id="1_actuated_program_D2.2" nVehContrib="6" flow="72.00" occupancy="0.82" speed="12.27" harmonicMeanSpeed="12.25" length="5.00" nVehEntered="6"/>
    <interval begin="0.00" end="300.00" id="1_actuated_program_D3.0" nVehContrib="7" flow="84.00" occupancy="0.96" speed="12.20" harmonicMeanSpeed="12.19" length="5.00" nVehEntered="7"/>
    <interval begin="0.00" end="300.00" id="1_actuated_program_D3.1" nVehContrib="30" flow="360.00" occupancy="34.92" speed="8.40" harmonicMeanSpeed="1.43" length="5.00" nVehEntered="30"/>
    <interval begin="0.00" end="300.00" id="1_actuated_program_D3.2" nVehContrib="6" flow="72.00" occupancy="0.84" speed="11.94" harmonicMeanSpeed="11.93" length="5.00" nVehEntered="6"/>
    <interval begin="300.00" end="600.00" id="1_actuated_program_D0.0" nVehContrib="12" flow="144.00" occupancy="5.75" speed="8.91" harmonicMeanSpeed="3.48" length="5.00" nVehEntered="12"/>
    <interval begin="300.00" end="600.00" id="1_actuated_program_D0.1" nVehContrib="34" flow="408.00" occupancy="61.89" speed="7.57" harmonicMeanSpeed="0.91" length="5.00" nVehEntered="33"/>
    <interval begin="300.00" end="600.00" id="1_actuated_program_D0.2" nVehContrib="8" flow="96.00" occupancy="1.14" speed="11.76" harmonicMeanSpeed="11.68" length="5.00" nVehEntered="8"/>
    <interval begin="300.00" end="600.00" id="1_actuated_program_D1.0" nVehContrib="5" flow="60.00" occupancy="0.69" speed="12.07" harmonicMeanSpeed="12.06" length="5.00" nVehEntered="5"/>
    <interval begin="300.00" end="600.00" id="1_actuated_program_D1.1" nVehContrib="34" flow="408.00" occupancy="38.08" speed="9.11" harmonicMeanSpeed="1.49" length="5.00" nVehEntered="34"/>
    <interval begin="300.00" end="600.00" id="1_actuated_program_D1.2" nVehContrib="2" flow="24.00" occupancy="0.28" speed="11.87" harmonicMeanSpeed="11.87" length="5.00" nVehEntered="2"/>
    <interval begin="300.00" end="600.00" id="1_actuated_program_D2.0" nVehContrib="9" flow="108.00" occupancy="1.30" speed="11.59" harmonicMeanSpeed="11.53" length="5.00" nVehEntered="9"/>
    <interval begin="300.00" end="600.00" id="1_actuated_program_D2.1" nVehContrib="27" flow="324.00" occupancy="48.52" speed="7.66" harmonicMeanSpeed="0.93" length="5.00" nVehEntered="27"/>
    <interval begin="300.00" end="600.00" id="1_actuated_program_D2.2" nVehContrib="5" flow="60.00" occupancy="0.75" speed="11.34" harmonicMeanSpeed="11.18" length="5.00" nVehEntered="5"/>
    <interval begin="300.00" end="600.00" id="1_actuated_program_D3.0" nVehContrib="8" flow="96.00" occupancy="1.20" speed="11.38" harmonicMeanSpeed="11.09" length="5.00" nVehEntered="8"/>
    <interval begin="300.00" end="600.00" id="1_actuated_program_D3.1" nVehContrib="47" flow="564.00" occupancy="44.18" speed="9.26" harmonicMeanSpeed="1.77" length="5.00" nVehEntered="47"/>
    <interval begin="300.00" end="600.00" id="1_actuated_program_D3.2" nVehContrib="4" flow="48.00" occupancy="0.55" speed="12.24" harmonicMeanSpeed="12.23" length="5.00" nVehEntered="4"/>
    <interval begin="600.00" end="900.00" id="1_actuated_program_D0.0" nVehContrib="8" flow="96.00" occupancy="1.09" speed="12.27" harmonicMeanSpeed="12.26" length="5.00" nVehEntered="8"/>
    <interval begin="600.00" end="900.00" id="1_actuated_program_D0.1" nVehContrib="48" flow="576.00" occupancy="52.21" speed="8.92" harmonicMeanSpeed="1.53" length="5.00" nVehEntered="48"/>
    <interval begin="600.00" end="900.00" id="1_actuated_program_D0.2" nVehContrib="9" flow="108.00" occupancy="1.73" speed="9.49" harmonicMeanSpeed="8.68" length="5.00" nVehEntered="9"/>
    <interval begin="600.00" end="900.00" id="1_actuated_program_D1.0" nVehContrib="13" flow="156.00" occupancy="12.97" speed="9.30" harmonicMeanSpeed="1.67" length="5.00" nVehEntered="13"/>
    <interval begin="600.00" end="900.00" id="1_actuated_program_D1.1" nVehContrib="49" flow="588.00" occupancy="51.25" speed="9.32" harmonicMeanSpeed="1.67" length="5.00" nVehEntered="50"/>
    <interval begin="600.00" end="900.00" id="1_actuated_program_D1.2" nVehContrib="9" flow="108.00" occupancy="1.45" speed="11.01" harmonicMeanSpeed="10.34" length="5.00" nVehEntered="9"/>
    <interval begin="600.00" end="900.00" id="1_actuated_program_D2.0" nVehContrib="6" flow="72.00" occupancy="0.80" speed="12.51" harmonicMeanSpeed="12.50" length="5.00" nVehEntered="6"/>
    <interval begin="600.00" end="900.00" id="1_actuated_program_D2.1" nVehContrib="54" flow="648.00" occupancy="52.99" speed="9.16" harmonicMeanSpeed="1.70" length="5.00" nVehEntered="54"/>
    <interval begin="600.00" end="900.00" id="1_actuated_program_D2.2" nVehContrib="9" flow="108.00" occupancy="1.39" speed="11.43" harmonicMeanSpeed="10.82" length="5.00" nVehEntered="9"/>
    <interval begin="600.00" end="900.00" id="1_actuated_program_D3.0" nVehContrib="13" flow="156.00" occupancy="6.50" speed="5.97" harmonicMeanSpeed="3.33" length="5.00" nVehEntered="13"/>
    <interval begin="600.00" end="900.00" id="1_actuated_program_D3.1" nVehContrib="45" flow="540.00" occupancy="46.98" speed="9.51" harmonicMeanSpeed="1.87" length="5.00" nVehEntered="46"/>
    <interval begin="600.00" end="900.00" id="1_actuated_program_D3.2" nVehContrib="9" flow="108.00" occupancy="1.40" speed="11.13" harmonicMeanSpeed="10.69" length="5.00" nVehEntered="9"/>
    <interval begin="900.00" end="1124.00" id="1_actuated_program_D0.0" nVehContrib="1" flow="16.07" occupancy="0.19" speed="11.90" harmonicMeanSpeed="11.90" length="5.00" nVehEntered="1"/>
    <interval begin="900.00" end="1124.00" id="1_actuated_program_D0.1" nVehContrib="9" flow="144.64" occupancy="1.80" speed="11.28" harmonicMeanSpeed="11.17" length="5.00" nVehEntered="9"/>
    <interval begin="900.00" end="1124.00" id="1_actuated_program_D0.2" nVehContrib="0" flow="0.00" occupancy="0.00" speed="-1.00" harmonicMeanSpeed="-1.00" length="-1.00" nVehEntered="0"/>
    <interval begin="900.00" end="1124.00" id="1_actuated_program_D1.0" nVehContrib="1" flow="16.07" occupancy="0.18" speed="12.11" harmonicMeanSpeed="12.11" length="5.00" nVehEntered="1"/>
    <interval begin="900.00" end="1124.00" id="1_actuated_program_D1.1" nVehContrib="5" flow="80.36" occupancy="28.26" speed="3.99" harmonicMeanSpeed="0.35" length="5.00" nVehEntered="4"/>
    <interval begin="900.00" end="1124.00" id="1_actuated_program_D1.2" nVehContrib="0" flow="0.00" occupancy="0.00" speed="-1.00" harmonicMeanSpeed="-1.00" length="-1.00" nVehEntered="0"/>
    <interval begin="900.00" end="1124.00" id="1_actuated_program_D2.0" nVehContrib="1" flow="16.07" occupancy="0.18" speed="12.07" harmonicMeanSpeed="12.07" length="5.00" nVehEntered="1"/>
    <interval begin="900.00" end="1124.00" id="1_actuated_program_D2.1" nVehContrib="14" flow="225.00" occupancy="3.00" speed="10.58" harmonicMeanSpeed="10.41" length="5.00" nVehEntered="14"/>
    <interval begin="900.00" end="1124.00" id="1_actuated_program_D2.2" nVehContrib="0" flow="0.00" occupancy="0.00" speed="-1.00" harmonicMeanSpeed="-1.00" length="-1.00" nVehEntered="0"/>
    <interval begin="900.00" end="1124.00" id="1_actuated_program_D3.0" nVehContrib="1" flow="16.07" occupancy="0.24" speed="9.13" harmonicMeanSpeed="9.13" length="5.00" nVehEntered="1"/>
    <interval begin="900.00" end="1124.00" id="1_actuated_program_D3.1" nVehContrib="8" flow="128.57" occupancy="28.65" speed="5.37" harmonicMeanSpeed="0.47" length="5.00" nVehEntered="7"/>
    <interval begin="900.00" end="1124.00" id="1_actuated_program_D3.2" nVehContrib="0" flow="0.00" occupancy="0.00" speed="-1.00" harmonicMeanSpeed="-1.00" length="-1.00" nVehEntered="0"/>
</detector>
