<?xml version="1.0" encoding="UTF-8"?>

<!-- generated on 2025-03-24 12:02:59 by Eclipse SUMO GUI Version 1.20.0
<configuration xmlns:xsi="http://www.w3.org/2001/XMLSchema-instance" xsi:noNamespaceSchemaLocation="http://sumo.dlr.de/xsd/sumoConfiguration.xsd">

    <input>
        <net-file value="/home/naderian/Desktop/Shakiba/MMSVCC/environment/network_model/single_intersection_pedestrian_X.net.xml"/>
        <route-files value="/home/naderian/Desktop/Shakiba/MMSVCC/environment/network_model/single_intersection.rou.xml"/>
        <additional-files value="/home/naderian/Desktop/Shakiba/MMSVCC/environment/network_model/single_intersection.add_actuated.xml"/>
    </input>

    <output>
        <queue-output value="/home/naderian/Desktop/Shakiba/MMSVCC/environment/simulation_data/single_intersection/queues_actuated_symmetric_pene_100.xml"/>
        <tripinfo-output value="/home/naderian/Desktop/Shakiba/MMSVCC/environment/simulation_data/single_intersection/tripinfo_actuated_symmetric_pene_100.xml"/>
    </output>

    <time>
        <begin value="0"/>
        <step-length value="0.5"/>
    </time>

    <processing>
        <waiting-time-memory value="1000"/>
    </processing>

    <report>
        <verbose value="true"/>
        <no-step-log value="true"/>
    </report>

    <traci_server>
        <remote-port value="46323"/>
    </traci_server>

    <gui_only>
        <start value="true"/>
    </gui_only>

</configuration>
-->

<detector xmlns:xsi="http://www.w3.org/2001/XMLSchema-instance" xsi:noNamespaceSchemaLocation="http://sumo.dlr.de/xsd/det_e1_file.xsd">
    <interval begin="0.00" end="300.00" id="1_actuated_program_D0.0" nVehContrib="31" flow="372.00" occupancy="11.51" speed="10.86" harmonicMeanSpeed="4.53" length="5.00" nVehEntered="32"/>
    <interval begin="0.00" end="300.00" id="1_actuated_program_D0.1" nVehContrib="11" flow="132.00" occupancy="10.13" speed="7.41" harmonicMeanSpeed="1.81" length="5.00" nVehEntered="11"/>
    <interval begin="0.00" end="300.00" id="1_actuated_program_D0.2" nVehContrib="6" flow="72.00" occupancy="0.86" speed="11.76" harmonicMeanSpeed="11.59" length="5.00" nVehEntered="6"/>
    <interval begin="0.00" end="300.00" id="1_actuated_program_D1.0" nVehContrib="19" flow="228.00" occupancy="4.76" speed="10.28" harmonicMeanSpeed="6.65" length="5.00" nVehEntered="19"/>
    <interval begin="0.00" end="300.00" id="1_actuated_program_D1.1" nVehContrib="17" flow="204.00" occupancy="10.88" speed="9.76" harmonicMeanSpeed="2.60" length="5.00" nVehEntered="17"/>
    <interval begin="0.00" end="300.00" id="1_actuated_program_D1.2" nVehContrib="6" flow="72.00" occupancy="0.81" speed="12.39" harmonicMeanSpeed="12.38" length="5.00" nVehEntered="6"/>
    <interval begin="0.00" end="300.00" id="1_actuated_program_D2.0" nVehContrib="24" flow="288.00" occupancy="4.01" speed="10.95" harmonicMeanSpeed="10.32" length="5.00" nVehEntered="26"/>
    <interval begin="0.00" end="300.00" id="1_actuated_program_D2.1" nVehContrib="19" flow="228.00" occupancy="3.19" speed="10.62" harmonicMeanSpeed="10.06" length="5.00" nVehEntered="20"/>
    <interval begin="0.00" end="300.00" id="1_actuated_program_D2.2" nVehContrib="6" flow="72.00" occupancy="0.82" speed="12.27" harmonicMeanSpeed="12.25" length="5.00" nVehEntered="6"/>
    <interval begin="0.00" end="300.00" id="1_actuated_program_D3.0" nVehContrib="25" flow="300.00" occupancy="19.63" speed="9.26" harmonicMeanSpeed="2.18" length="5.00" nVehEntered="28"/>
    <interval begin="0.00" end="300.00" id="1_actuated_program_D3.1" nVehContrib="17" flow="204.00" occupancy="8.84" speed="8.37" harmonicMeanSpeed="3.21" length="5.00" nVehEntered="17"/>
    <interval begin="0.00" end="300.00" id="1_actuated_program_D3.2" nVehContrib="6" flow="72.00" occupancy="0.82" speed="12.28" harmonicMeanSpeed="12.27" length="5.00" nVehEntered="6"/>
    <interval begin="300.00" end="600.00" id="1_actuated_program_D0.0" nVehContrib="22" flow="264.00" occupancy="36.55" speed="6.39" harmonicMeanSpeed="1.05" length="5.00" nVehEntered="23"/>
    <interval begin="300.00" end="600.00" id="1_actuated_program_D0.1" nVehContrib="29" flow="348.00" occupancy="34.60" speed="6.75" harmonicMeanSpeed="1.40" length="5.00" nVehEntered="29"/>
    <interval begin="300.00" end="600.00" id="1_actuated_program_D0.2" nVehContrib="8" flow="96.00" occupancy="3.85" speed="9.50" harmonicMeanSpeed="3.46" length="5.00" nVehEntered="8"/>
    <interval begin="300.00" end="600.00" id="1_actuated_program_D1.0" nVehContrib="13" flow="156.00" occupancy="4.24" speed="9.51" harmonicMeanSpeed="7.86" length="5.00" nVehEntered="14"/>
    <interval begin="300.00" end="600.00" id="1_actuated_program_D1.1" nVehContrib="22" flow="264.00" occupancy="10.69" speed="9.88" harmonicMeanSpeed="9.02" length="5.00" nVehEntered="25"/>
    <interval begin="300.00" end="600.00" id="1_actuated_program_D1.2" nVehContrib="2" flow="24.00" occupancy="0.27" speed="12.21" harmonicMeanSpeed="12.21" length="5.00" nVehEntered="2"/>
    <interval begin="300.00" end="600.00" id="1_actuated_program_D2.0" nVehContrib="26" flow="312.00" occupancy="15.90" speed="8.01" harmonicMeanSpeed="2.74" length="5.00" nVehEntered="27"/>
    <interval begin="300.00" end="600.00" id="1_actuated_program_D2.1" nVehContrib="20" flow="240.00" occupancy="18.25" speed="7.82" harmonicMeanSpeed="2.45" length="5.00" nVehEntered="21"/>
    <interval begin="300.00" end="600.00" id="1_actuated_program_D2.2" nVehContrib="5" flow="60.00" occupancy="0.67" speed="12.42" harmonicMeanSpeed="12.41" length="5.00" nVehEntered="5"/>
    <interval begin="300.00" end="600.00" id="1_actuated_program_D3.0" nVehContrib="23" flow="276.00" occupancy="10.77" speed="9.74" harmonicMeanSpeed="3.60" length="5.00" nVehEntered="24"/>
    <interval begin="300.00" end="600.00" id="1_actuated_program_D3.1" nVehContrib="21" flow="252.00" occupancy="18.81" speed="8.71" harmonicMeanSpeed="7.31" length="5.00" nVehEntered="25"/>
    <interval begin="300.00" end="600.00" id="1_actuated_program_D3.2" nVehContrib="4" flow="48.00" occupancy="0.55" speed="12.23" harmonicMeanSpeed="12.22" length="5.00" nVehEntered="4"/>
    <interval begin="600.00" end="900.00" id="1_actuated_program_D0.0" nVehContrib="21" flow="252.00" occupancy="37.61" speed="6.80" harmonicMeanSpeed="1.33" length="5.00" nVehEntered="23"/>
    <interval begin="600.00" end="900.00" id="1_actuated_program_D0.1" nVehContrib="33" flow="396.00" occupancy="43.25" speed="7.91" harmonicMeanSpeed="1.82" length="5.00" nVehEntered="35"/>
    <interval begin="600.00" end="900.00" id="1_actuated_program_D0.2" nVehContrib="9" flow="108.00" occupancy="10.52" speed="8.39" harmonicMeanSpeed="1.43" length="5.00" nVehEntered="9"/>
    <interval begin="600.00" end="900.00" id="1_actuated_program_D1.0" nVehContrib="33" flow="396.00" occupancy="43.65" speed="6.90" harmonicMeanSpeed="1.29" length="5.00" nVehEntered="34"/>
    <interval begin="600.00" end="900.00" id="1_actuated_program_D1.1" nVehContrib="33" flow="396.00" occupancy="44.01" speed="7.69" harmonicMeanSpeed="1.16" length="5.00" nVehEntered="33"/>
    <interval begin="600.00" end="900.00" id="1_actuated_program_D1.2" nVehContrib="9" flow="108.00" occupancy="1.44" speed="10.99" harmonicMeanSpeed="10.42" length="5.00" nVehEntered="9"/>
    <interval begin="600.00" end="900.00" id="1_actuated_program_D2.0" nVehContrib="27" flow="324.00" occupancy="38.48" speed="7.93" harmonicMeanSpeed="1.52" length="5.00" nVehEntered="31"/>
    <interval begin="600.00" end="900.00" id="1_actuated_program_D2.1" nVehContrib="29" flow="348.00" occupancy="34.47" speed="7.64" harmonicMeanSpeed="1.80" length="5.00" nVehEntered="30"/>
    <interval begin="600.00" end="900.00" id="1_actuated_program_D2.2" nVehContrib="9" flow="108.00" occupancy="1.26" speed="11.95" harmonicMeanSpeed="11.94" length="5.00" nVehEntered="9"/>
    <interval begin="600.00" end="900.00" id="1_actuated_program_D3.0" nVehContrib="32" flow="384.00" occupancy="43.21" speed="6.52" harmonicMeanSpeed="1.23" length="5.00" nVehEntered="32"/>
    <interval begin="600.00" end="900.00" id="1_actuated_program_D3.1" nVehContrib="37" flow="444.00" occupancy="34.62" speed="8.24" harmonicMeanSpeed="1.35" length="5.00" nVehEntered="36"/>
    <interval begin="600.00" end="900.00" id="1_actuated_program_D3.2" nVehContrib="9" flow="108.00" occupancy="1.45" speed="10.66" harmonicMeanSpeed="10.31" length="5.00" nVehEntered="9"/>
    <interval begin="900.00" end="1130.50" id="1_actuated_program_D0.0" nVehContrib="4" flow="62.47" occupancy="13.17" speed="1.51" harmonicMeanSpeed="0.31" length="5.00" nVehEntered="3"/>
    <interval begin="900.00" end="1130.50" id="1_actuated_program_D0.1" nVehContrib="2" flow="31.24" occupancy="14.88" speed="1.58" harmonicMeanSpeed="0.14" length="5.00" nVehEntered="1"/>
    <interval begin="900.00" end="1130.50" id="1_actuated_program_D0.2" nVehContrib="0" flow="0.00" occupancy="0.00" speed="-1.00" harmonicMeanSpeed="-1.00" length="-1.00" nVehEntered="0"/>
    <interval begin="900.00" end="1130.50" id="1_actuated_program_D1.0" nVehContrib="4" flow="62.47" occupancy="0.73" speed="11.90" harmonicMeanSpeed="11.89" length="5.00" nVehEntered="4"/>
    <interval begin="900.00" end="1130.50" id="1_actuated_program_D1.1" nVehContrib="0" flow="0.00" occupancy="0.00" speed="-1.00" harmonicMeanSpeed="-1.00" length="-1.00" nVehEntered="0"/>
    <interval begin="900.00" end="1130.50" id="1_actuated_program_D1.2" nVehContrib="0" flow="0.00" occupancy="0.00" speed="-1.00" harmonicMeanSpeed="-1.00" length="-1.00" nVehEntered="0"/>
    <interval begin="900.00" end="1130.50" id="1_actuated_program_D2.0" nVehContrib="5" flow="78.09" occupancy="17.18" speed="2.55" harmonicMeanSpeed="0.38" length="5.00" nVehEntered="4"/>
    <interval begin="900.00" end="1130.50" id="1_actuated_program_D2.1" nVehContrib="4" flow="62.47" occupancy="15.74" speed="3.64" harmonicMeanSpeed="0.34" length="5.00" nVehEntered="3"/>
    <interval begin="900.00" end="1130.50" id="1_actuated_program_D2.2" nVehContrib="0" flow="0.00" occupancy="0.00" speed="-1.00" harmonicMeanSpeed="-1.00" length="-1.00" nVehEntered="0"/>
    <interval begin="900.00" end="1130.50" id="1_actuated_program_D3.0" nVehContrib="4" flow="62.47" occupancy="0.88" speed="10.25" harmonicMeanSpeed="9.83" length="5.00" nVehEntered="4"/>
    <interval begin="900.00" end="1130.50" id="1_actuated_program_D3.1" nVehContrib="0" flow="0.00" occupancy="0.00" speed="-1.00" harmonicMeanSpeed="-1.00" length="-1.00" nVehEntered="0"/>
    <interval begin="900.00" end="1130.50" id="1_actuated_program_D3.2" nVehContrib="0" flow="0.00" occupancy="0.00" speed="-1.00" harmonicMeanSpeed="-1.00" length="-1.00" nVehEntered="0"/>
</detector>
