<?xml version="1.0" encoding="UTF-8"?>

<!-- generated on 2025-07-15 12:00:48 by Eclipse SUMO GUI Version 1.22.0
<sumoConfiguration xmlns:xsi="http://www.w3.org/2001/XMLSchema-instance" xsi:noNamespaceSchemaLocation="http://sumo.dlr.de/xsd/sumoConfiguration.xsd">

    <input>
        <net-file value="/home/naderian/Desktop/Shakiba/MMSVCC/environment/network_model/single_intersection_Concurrent_(permitted_right).net.xml"/>
        <route-files value="/home/naderian/Desktop/Shakiba/MMSVCC/environment/network_model/single_intersection.rou.xml"/>
        <additional-files value="/home/naderian/Desktop/Shakiba/MMSVCC/environment/network_model/single_intersection.add_actuated_(permitted_right).xml"/>
    </input>

    <output>
        <queue-output value="/home/naderian/Desktop/Shakiba/MMSVCC/environment/simulation_data/single_intersection/queues_actuated_asymmetric_pene_100.xml"/>
        <tripinfo-output value="/home/naderian/Desktop/Shakiba/MMSVCC/environment/simulation_data/single_intersection/tripinfo_actuated_asymmetric_pene_100.xml"/>
    </output>

    <time>
        <begin value="0"/>
        <step-length value="0.5"/>
    </time>

    <processing>
        <waiting-time-memory value="1000"/>
    </processing>

    <report>
        <verbose value="true"/>
        <no-step-log value="true"/>
    </report>

    <ssm_device>
        <device.ssm.file value="/home/naderian/Desktop/Shakiba/MMSVCC/environment/simulation_data/single_intersection/SSMinfo_actuated_pene_100.xml"/>
    </ssm_device>

    <traci_server>
        <remote-port value="47501"/>
    </traci_server>

    <gui_only>
        <start value="true"/>
    </gui_only>

</sumoConfiguration>
-->

<detector xmlns:xsi="http://www.w3.org/2001/XMLSchema-instance" xsi:noNamespaceSchemaLocation="http://sumo.dlr.de/xsd/det_e1_file.xsd">
    <interval begin="0.00" end="300.00" id="1_actuated_program_D0.0" nVehContrib="21" flow="252.00" occupancy="3.29" speed="11.14" harmonicMeanSpeed="10.65" length="5.00" nVehEntered="21"/>
    <interval begin="0.00" end="300.00" id="1_actuated_program_D0.1" nVehContrib="11" flow="132.00" occupancy="1.58" speed="11.74" harmonicMeanSpeed="11.57" length="5.00" nVehEntered="11"/>
    <interval begin="0.00" end="300.00" id="1_actuated_program_D0.2" nVehContrib="2" flow="24.00" occupancy="0.28" speed="12.12" harmonicMeanSpeed="12.11" length="5.00" nVehEntered="2"/>
    <interval begin="0.00" end="300.00" id="1_actuated_program_D1.0" nVehContrib="14" flow="168.00" occupancy="2.33" speed="10.75" harmonicMeanSpeed="10.03" length="5.00" nVehEntered="14"/>
    <interval begin="0.00" end="300.00" id="1_actuated_program_D1.1" nVehContrib="18" flow="216.00" occupancy="5.49" speed="9.99" harmonicMeanSpeed="5.46" length="5.00" nVehEntered="18"/>
    <interval begin="0.00" end="300.00" id="1_actuated_program_D1.2" nVehContrib="6" flow="72.00" occupancy="0.84" speed="11.98" harmonicMeanSpeed="11.96" length="5.00" nVehEntered="6"/>
    <interval begin="0.00" end="300.00" id="1_actuated_program_D2.0" nVehContrib="20" flow="240.00" occupancy="11.68" speed="8.70" harmonicMeanSpeed="2.89" length="5.00" nVehEntered="21"/>
    <interval begin="0.00" end="300.00" id="1_actuated_program_D2.1" nVehContrib="21" flow="252.00" occupancy="13.47" speed="9.13" harmonicMeanSpeed="2.80" length="5.00" nVehEntered="22"/>
    <interval begin="0.00" end="300.00" id="1_actuated_program_D2.2" nVehContrib="4" flow="48.00" occupancy="0.54" speed="12.29" harmonicMeanSpeed="12.26" length="5.00" nVehEntered="4"/>
    <interval begin="0.00" end="300.00" id="1_actuated_program_D3.0" nVehContrib="21" flow="252.00" occupancy="3.57" speed="10.84" harmonicMeanSpeed="9.85" length="5.00" nVehEntered="22"/>
    <interval begin="0.00" end="300.00" id="1_actuated_program_D3.1" nVehContrib="20" flow="240.00" occupancy="4.58" speed="9.84" harmonicMeanSpeed="9.02" length="5.00" nVehEntered="21"/>
    <interval begin="0.00" end="300.00" id="1_actuated_program_D3.2" nVehContrib="1" flow="12.00" occupancy="0.14" speed="11.55" harmonicMeanSpeed="11.55" length="5.00" nVehEntered="1"/>
    <interval begin="300.00" end="600.00" id="1_actuated_program_D0.0" nVehContrib="16" flow="192.00" occupancy="32.67" speed="4.09" harmonicMeanSpeed="0.83" length="5.00" nVehEntered="17"/>
    <interval begin="300.00" end="600.00" id="1_actuated_program_D0.1" nVehContrib="24" flow="288.00" occupancy="11.50" speed="9.57" harmonicMeanSpeed="3.48" length="5.00" nVehEntered="24"/>
    <interval begin="300.00" end="600.00" id="1_actuated_program_D0.2" nVehContrib="5" flow="60.00" occupancy="0.69" speed="12.16" harmonicMeanSpeed="12.14" length="5.00" nVehEntered="5"/>
    <interval begin="300.00" end="600.00" id="1_actuated_program_D1.0" nVehContrib="14" flow="168.00" occupancy="2.17" speed="11.54" harmonicMeanSpeed="11.39" length="5.00" nVehEntered="15"/>
    <interval begin="300.00" end="600.00" id="1_actuated_program_D1.1" nVehContrib="17" flow="204.00" occupancy="2.95" speed="10.01" harmonicMeanSpeed="9.60" length="5.00" nVehEntered="17"/>
    <interval begin="300.00" end="600.00" id="1_actuated_program_D1.2" nVehContrib="4" flow="48.00" occupancy="0.76" speed="9.43" harmonicMeanSpeed="8.82" length="5.00" nVehEntered="4"/>
    <interval begin="300.00" end="600.00" id="1_actuated_program_D2.0" nVehContrib="18" flow="216.00" occupancy="37.43" speed="6.21" harmonicMeanSpeed="0.85" length="5.00" nVehEntered="19"/>
    <interval begin="300.00" end="600.00" id="1_actuated_program_D2.1" nVehContrib="33" flow="396.00" occupancy="32.66" speed="7.39" harmonicMeanSpeed="1.72" length="5.00" nVehEntered="34"/>
    <interval begin="300.00" end="600.00" id="1_actuated_program_D2.2" nVehContrib="5" flow="60.00" occupancy="0.73" speed="11.53" harmonicMeanSpeed="11.40" length="5.00" nVehEntered="5"/>
    <interval begin="300.00" end="600.00" id="1_actuated_program_D3.0" nVehContrib="15" flow="180.00" occupancy="20.39" speed="4.25" harmonicMeanSpeed="1.23" length="5.00" nVehEntered="15"/>
    <interval begin="300.00" end="600.00" id="1_actuated_program_D3.1" nVehContrib="28" flow="336.00" occupancy="28.62" speed="7.27" harmonicMeanSpeed="1.87" length="5.00" nVehEntered="31"/>
    <interval begin="300.00" end="600.00" id="1_actuated_program_D3.2" nVehContrib="7" flow="84.00" occupancy="0.98" speed="11.96" harmonicMeanSpeed="11.93" length="5.00" nVehEntered="7"/>
    <interval begin="600.00" end="900.00" id="1_actuated_program_D0.0" nVehContrib="9" flow="108.00" occupancy="56.34" speed="1.88" harmonicMeanSpeed="0.35" length="5.00" nVehEntered="10"/>
    <interval begin="600.00" end="900.00" id="1_actuated_program_D0.1" nVehContrib="33" flow="396.00" occupancy="24.24" speed="7.93" harmonicMeanSpeed="2.28" length="5.00" nVehEntered="34"/>
    <interval begin="600.00" end="900.00" id="1_actuated_program_D0.2" nVehContrib="9" flow="108.00" occupancy="6.36" speed="9.83" harmonicMeanSpeed="2.36" length="5.00" nVehEntered="9"/>
    <interval begin="600.00" end="900.00" id="1_actuated_program_D1.0" nVehContrib="22" flow="264.00" occupancy="20.17" speed="8.88" harmonicMeanSpeed="1.82" length="5.00" nVehEntered="22"/>
    <interval begin="600.00" end="900.00" id="1_actuated_program_D1.1" nVehContrib="22" flow="264.00" occupancy="12.91" speed="8.78" harmonicMeanSpeed="2.84" length="5.00" nVehEntered="22"/>
    <interval begin="600.00" end="900.00" id="1_actuated_program_D1.2" nVehContrib="8" flow="96.00" occupancy="1.19" speed="11.34" harmonicMeanSpeed="11.23" length="5.00" nVehEntered="8"/>
    <interval begin="600.00" end="900.00" id="1_actuated_program_D2.0" nVehContrib="11" flow="132.00" occupancy="48.41" speed="2.55" harmonicMeanSpeed="0.54" length="5.00" nVehEntered="12"/>
    <interval begin="600.00" end="900.00" id="1_actuated_program_D2.1" nVehContrib="45" flow="540.00" occupancy="51.86" speed="8.26" harmonicMeanSpeed="2.02" length="5.00" nVehEntered="47"/>
    <interval begin="600.00" end="900.00" id="1_actuated_program_D2.2" nVehContrib="7" flow="84.00" occupancy="0.98" speed="11.98" harmonicMeanSpeed="11.88" length="5.00" nVehEntered="7"/>
    <interval begin="600.00" end="900.00" id="1_actuated_program_D3.0" nVehContrib="24" flow="288.00" occupancy="53.54" speed="7.45" harmonicMeanSpeed="0.77" length="5.00" nVehEntered="27"/>
    <interval begin="600.00" end="900.00" id="1_actuated_program_D3.1" nVehContrib="30" flow="360.00" occupancy="42.84" speed="6.68" harmonicMeanSpeed="1.23" length="5.00" nVehEntered="30"/>
    <interval begin="600.00" end="900.00" id="1_actuated_program_D3.2" nVehContrib="11" flow="132.00" occupancy="2.00" speed="9.85" harmonicMeanSpeed="9.16" length="5.00" nVehEntered="11"/>
    <interval begin="900.00" end="1144.00" id="1_actuated_program_D0.0" nVehContrib="3" flow="44.26" occupancy="46.90" speed="0.19" harmonicMeanSpeed="0.10" length="5.00" nVehEntered="2"/>
    <interval begin="900.00" end="1144.00" id="1_actuated_program_D0.1" nVehContrib="3" flow="44.26" occupancy="0.63" speed="8.93" harmonicMeanSpeed="8.47" length="5.00" nVehEntered="2"/>
    <interval begin="900.00" end="1144.00" id="1_actuated_program_D0.2" nVehContrib="0" flow="0.00" occupancy="0.00" speed="-1.00" harmonicMeanSpeed="-1.00" length="-1.00" nVehEntered="0"/>
    <interval begin="900.00" end="1144.00" id="1_actuated_program_D1.0" nVehContrib="0" flow="0.00" occupancy="0.00" speed="-1.00" harmonicMeanSpeed="-1.00" length="-1.00" nVehEntered="0"/>
    <interval begin="900.00" end="1144.00" id="1_actuated_program_D1.1" nVehContrib="3" flow="44.26" occupancy="0.50" speed="12.23" harmonicMeanSpeed="12.22" length="5.00" nVehEntered="3"/>
    <interval begin="900.00" end="1144.00" id="1_actuated_program_D1.2" nVehContrib="1" flow="14.75" occupancy="0.34" speed="6.09" harmonicMeanSpeed="6.09" length="5.00" nVehEntered="1"/>
    <interval begin="900.00" end="1144.00" id="1_actuated_program_D2.0" nVehContrib="6" flow="88.52" occupancy="19.32" speed="4.22" harmonicMeanSpeed="0.33" length="5.00" nVehEntered="5"/>
    <interval begin="900.00" end="1144.00" id="1_actuated_program_D2.1" nVehContrib="7" flow="103.28" occupancy="19.54" speed="5.34" harmonicMeanSpeed="0.39" length="5.00" nVehEntered="6"/>
    <interval begin="900.00" end="1144.00" id="1_actuated_program_D2.2" nVehContrib="0" flow="0.00" occupancy="0.00" speed="-1.00" harmonicMeanSpeed="-1.00" length="-1.00" nVehEntered="0"/>
    <interval begin="900.00" end="1144.00" id="1_actuated_program_D3.0" nVehContrib="3" flow="44.26" occupancy="2.57" speed="1.88" harmonicMeanSpeed="1.30" length="5.00" nVehEntered="2"/>
    <interval begin="900.00" end="1144.00" id="1_actuated_program_D3.1" nVehContrib="4" flow="59.02" occupancy="2.08" speed="5.39" harmonicMeanSpeed="3.95" length="5.00" nVehEntered="4"/>
    <interval begin="900.00" end="1144.00" id="1_actuated_program_D3.2" nVehContrib="1" flow="14.75" occupancy="0.37" speed="5.56" harmonicMeanSpeed="5.56" length="5.00" nVehEntered="1"/>
</detector>
