<?xml version="1.0" encoding="UTF-8"?>

<!-- generated on 2025-03-14 14:55:36 by Eclipse SUMO GUI Version 1.20.0
<configuration xmlns:xsi="http://www.w3.org/2001/XMLSchema-instance" xsi:noNamespaceSchemaLocation="http://sumo.dlr.de/xsd/sumoConfiguration.xsd">

    <input>
        <net-file value="/home/naderian/Desktop/Shakiba/MMSVCC/environment/network_model/single_intersection_pedestrian_X.net.xml"/>
        <route-files value="/home/naderian/Desktop/Shakiba/MMSVCC/environment/network_model/single_intersection.rou.xml"/>
        <additional-files value="/home/naderian/Desktop/Shakiba/MMSVCC/environment/network_model/single_intersection_Concurrent.add.xml"/>
    </input>

    <output>
        <queue-output value="/home/naderian/Desktop/Shakiba/MMSVCC/environment/simulation_data/single_intersection/queues_multi_scale_symmetric_pene_100.xml"/>
        <tripinfo-output value="/home/naderian/Desktop/Shakiba/MMSVCC/environment/simulation_data/single_intersection/tripinfo_multi_scale_symmetric_pene_100.xml"/>
    </output>

    <time>
        <begin value="0"/>
        <step-length value="0.5"/>
    </time>

    <processing>
        <waiting-time-memory value="1000"/>
    </processing>

    <report>
        <verbose value="true"/>
        <no-step-log value="true"/>
    </report>

    <traci_server>
        <remote-port value="34851"/>
    </traci_server>

    <gui_only>
        <start value="true"/>
    </gui_only>

</configuration>
-->

<queue-export xmlns:xsi="http://www.w3.org/2001/XMLSchema-instance" xsi:noNamespaceSchemaLocation="http://sumo.dlr.de/xsd/queue_file.xsd">
    <data timestep="0.00">
        <lanes/>
    </data>
    <data timestep="0.50">
        <lanes/>
    </data>
    <data timestep="1.00">
        <lanes/>
    </data>
    <data timestep="1.50">
        <lanes/>
    </data>
    <data timestep="2.00">
        <lanes/>
    </data>
    <data timestep="2.50">
        <lanes/>
    </data>
    <data timestep="3.00">
        <lanes/>
    </data>
    <data timestep="3.50">
        <lanes/>
    </data>
    <data timestep="4.00">
        <lanes/>
    </data>
    <data timestep="4.50">
        <lanes/>
    </data>
    <data timestep="5.00">
        <lanes/>
    </data>
    <data timestep="5.50">
        <lanes/>
    </data>
    <data timestep="6.00">
        <lanes/>
    </data>
    <data timestep="6.50">
        <lanes/>
    </data>
    <data timestep="7.00">
        <lanes/>
    </data>
    <data timestep="7.50">
        <lanes/>
    </data>
    <data timestep="8.00">
        <lanes/>
    </data>
    <data timestep="8.50">
        <lanes/>
    </data>
    <data timestep="9.00">
        <lanes/>
    </data>
    <data timestep="9.50">
        <lanes/>
    </data>
    <data timestep="10.00">
        <lanes/>
    </data>
    <data timestep="10.50">
        <lanes/>
    </data>
    <data timestep="11.00">
        <lanes/>
    </data>
    <data timestep="11.50">
        <lanes/>
    </data>
    <data timestep="12.00">
        <lanes/>
    </data>
    <data timestep="12.50">
        <lanes/>
    </data>
    <data timestep="13.00">
        <lanes/>
    </data>
    <data timestep="13.50">
        <lanes/>
    </data>
    <data timestep="14.00">
        <lanes/>
    </data>
    <data timestep="14.50">
        <lanes/>
    </data>
    <data timestep="15.00">
        <lanes/>
    </data>
    <data timestep="15.50">
        <lanes/>
    </data>
    <data timestep="16.00">
        <lanes/>
    </data>
    <data timestep="16.50">
        <lanes/>
    </data>
    <data timestep="17.00">
        <lanes/>
    </data>
    <data timestep="17.50">
        <lanes/>
    </data>
    <data timestep="18.00">
        <lanes/>
    </data>
    <data timestep="18.50">
        <lanes/>
    </data>
    <data timestep="19.00">
        <lanes/>
    </data>
    <data timestep="19.50">
        <lanes/>
    </data>
    <data timestep="20.00">
        <lanes/>
    </data>
    <data timestep="20.50">
        <lanes/>
    </data>
    <data timestep="21.00">
        <lanes/>
    </data>
    <data timestep="21.50">
        <lanes>
            <lane id="2_1_1" queueing_time="0.00" queueing_length="0.00" queueing_length_experimental="6.29"/>
        </lanes>
    </data>
    <data timestep="22.00">
        <lanes>
            <lane id="2_1_1" queueing_time="0.50" queueing_length="6.29" queueing_length_experimental="6.29"/>
        </lanes>
    </data>
    <data timestep="22.50">
        <lanes>
            <lane id="2_1_1" queueing_time="1.00" queueing_length="6.29" queueing_length_experimental="6.29"/>
        </lanes>
    </data>
    <data timestep="23.00">
        <lanes>
            <lane id="2_1_1" queueing_time="1.50" queueing_length="6.29" queueing_length_experimental="6.29"/>
        </lanes>
    </data>
    <data timestep="23.50">
        <lanes>
            <lane id="2_1_1" queueing_time="2.00" queueing_length="6.29" queueing_length_experimental="6.29"/>
        </lanes>
    </data>
    <data timestep="24.00">
        <lanes>
            <lane id="2_1_1" queueing_time="2.50" queueing_length="6.29" queueing_length_experimental="6.29"/>
        </lanes>
    </data>
    <data timestep="24.50">
        <lanes>
            <lane id="2_1_1" queueing_time="3.00" queueing_length="6.29" queueing_length_experimental="6.29"/>
        </lanes>
    </data>
    <data timestep="25.00">
        <lanes>
            <lane id="2_1_1" queueing_time="3.50" queueing_length="6.29" queueing_length_experimental="6.29"/>
        </lanes>
    </data>
    <data timestep="25.50">
        <lanes>
            <lane id="2_1_1" queueing_time="4.00" queueing_length="6.29" queueing_length_experimental="6.29"/>
        </lanes>
    </data>
    <data timestep="26.00">
        <lanes>
            <lane id="2_1_1" queueing_time="4.50" queueing_length="6.29" queueing_length_experimental="6.29"/>
        </lanes>
    </data>
    <data timestep="26.50">
        <lanes>
            <lane id="2_1_1" queueing_time="5.00" queueing_length="6.29" queueing_length_experimental="6.29"/>
        </lanes>
    </data>
    <data timestep="27.00">
        <lanes>
            <lane id="2_1_1" queueing_time="0.00" queueing_length="0.00" queueing_length_experimental="6.00"/>
        </lanes>
    </data>
    <data timestep="27.50">
        <lanes>
            <lane id="2_1_1" queueing_time="0.50" queueing_length="6.00" queueing_length_experimental="6.00"/>
        </lanes>
    </data>
    <data timestep="28.00">
        <lanes>
            <lane id="2_1_1" queueing_time="1.00" queueing_length="6.00" queueing_length_experimental="6.00"/>
        </lanes>
    </data>
    <data timestep="28.50">
        <lanes>
            <lane id="2_1_1" queueing_time="1.50" queueing_length="6.00" queueing_length_experimental="6.00"/>
        </lanes>
    </data>
    <data timestep="29.00">
        <lanes>
            <lane id="2_1_1" queueing_time="2.00" queueing_length="6.00" queueing_length_experimental="15.36"/>
        </lanes>
    </data>
    <data timestep="29.50">
        <lanes>
            <lane id="2_1_1" queueing_time="2.50" queueing_length="6.00" queueing_length_experimental="14.94"/>
        </lanes>
    </data>
    <data timestep="30.00">
        <lanes>
            <lane id="2_1_1" queueing_time="3.00" queueing_length="6.00" queueing_length_experimental="14.52"/>
        </lanes>
    </data>
    <data timestep="30.50">
        <lanes>
            <lane id="2_1_1" queueing_time="3.50" queueing_length="6.00" queueing_length_experimental="14.12"/>
        </lanes>
    </data>
    <data timestep="31.00">
        <lanes>
            <lane id="2_1_1" queueing_time="4.00" queueing_length="6.00" queueing_length_experimental="13.85"/>
        </lanes>
    </data>
    <data timestep="31.50">
        <lanes>
            <lane id="2_1_1" queueing_time="4.50" queueing_length="6.00" queueing_length_experimental="13.60"/>
        </lanes>
    </data>
    <data timestep="32.00">
        <lanes>
            <lane id="2_1_1" queueing_time="5.00" queueing_length="6.00" queueing_length_experimental="13.49"/>
            <lane id="2_1_2" queueing_time="0.00" queueing_length="0.00" queueing_length_experimental="7.14"/>
        </lanes>
    </data>
    <data timestep="32.50">
        <lanes>
            <lane id="2_1_1" queueing_time="5.50" queueing_length="6.00" queueing_length_experimental="13.28"/>
            <lane id="2_1_2" queueing_time="0.00" queueing_length="0.00" queueing_length_experimental="6.97"/>
        </lanes>
    </data>
    <data timestep="33.00">
        <lanes>
            <lane id="2_1_1" queueing_time="6.00" queueing_length="13.28" queueing_length_experimental="13.28"/>
            <lane id="2_1_2" queueing_time="0.50" queueing_length="6.97" queueing_length_experimental="6.97"/>
        </lanes>
    </data>
    <data timestep="33.50">
        <lanes>
            <lane id="2_1_1" queueing_time="6.50" queueing_length="6.00" queueing_length_experimental="13.14"/>
            <lane id="2_1_2" queueing_time="1.00" queueing_length="6.97" queueing_length_experimental="6.97"/>
        </lanes>
    </data>
    <data timestep="34.00">
        <lanes>
            <lane id="2_1_1" queueing_time="7.00" queueing_length="13.14" queueing_length_experimental="13.14"/>
            <lane id="2_1_2" queueing_time="1.50" queueing_length="6.97" queueing_length_experimental="6.97"/>
        </lanes>
    </data>
    <data timestep="34.50">
        <lanes>
            <lane id="2_1_1" queueing_time="7.50" queueing_length="6.00" queueing_length_experimental="22.32"/>
            <lane id="2_1_2" queueing_time="2.00" queueing_length="6.97" queueing_length_experimental="6.97"/>
        </lanes>
    </data>
    <data timestep="35.00">
        <lanes>
            <lane id="2_1_1" queueing_time="8.00" queueing_length="22.28" queueing_length_experimental="22.28"/>
            <lane id="2_1_2" queueing_time="2.50" queueing_length="6.97" queueing_length_experimental="6.97"/>
        </lanes>
    </data>
    <data timestep="35.50">
        <lanes>
            <lane id="2_1_1" queueing_time="8.50" queueing_length="22.28" queueing_length_experimental="22.28"/>
            <lane id="2_1_2" queueing_time="3.00" queueing_length="6.97" queueing_length_experimental="6.97"/>
        </lanes>
    </data>
    <data timestep="36.00">
        <lanes>
            <lane id="2_1_1" queueing_time="9.00" queueing_length="22.28" queueing_length_experimental="22.28"/>
            <lane id="2_1_2" queueing_time="3.50" queueing_length="6.97" queueing_length_experimental="6.97"/>
        </lanes>
    </data>
    <data timestep="36.50">
        <lanes>
            <lane id="2_1_1" queueing_time="9.50" queueing_length="22.28" queueing_length_experimental="22.28"/>
            <lane id="2_1_2" queueing_time="4.00" queueing_length="6.97" queueing_length_experimental="6.97"/>
            <lane id="2_1_3" queueing_time="0.00" queueing_length="0.00" queueing_length_experimental="6.40"/>
        </lanes>
    </data>
    <data timestep="37.00">
        <lanes>
            <lane id="2_1_1" queueing_time="10.00" queueing_length="22.28" queueing_length_experimental="22.28"/>
            <lane id="2_1_2" queueing_time="4.50" queueing_length="6.97" queueing_length_experimental="6.97"/>
            <lane id="2_1_3" queueing_time="0.50" queueing_length="6.40" queueing_length_experimental="6.40"/>
        </lanes>
    </data>
    <data timestep="37.50">
        <lanes>
            <lane id="2_1_1" queueing_time="10.50" queueing_length="13.08" queueing_length_experimental="22.02"/>
            <lane id="2_1_2" queueing_time="0.00" queueing_length="0.00" queueing_length_experimental="6.91"/>
            <lane id="2_1_3" queueing_time="1.00" queueing_length="6.40" queueing_length_experimental="6.40"/>
        </lanes>
    </data>
    <data timestep="38.00">
        <lanes>
            <lane id="2_1_1" queueing_time="11.00" queueing_length="13.04" queueing_length_experimental="21.34"/>
            <lane id="2_1_3" queueing_time="1.50" queueing_length="6.40" queueing_length_experimental="6.40"/>
            <lane id="5_1_1" queueing_time="0.00" queueing_length="0.00" queueing_length_experimental="7.50"/>
        </lanes>
    </data>
    <data timestep="38.50">
        <lanes>
            <lane id="2_1_1" queueing_time="11.50" queueing_length="21.34" queueing_length_experimental="21.34"/>
            <lane id="2_1_2" queueing_time="0.00" queueing_length="0.00" queueing_length_experimental="6.00"/>
            <lane id="2_1_3" queueing_time="2.00" queueing_length="6.40" queueing_length_experimental="6.40"/>
            <lane id="3_1_1" queueing_time="0.00" queueing_length="0.00" queueing_length_experimental="7.53"/>
            <lane id="5_1_1" queueing_time="0.50" queueing_length="7.46" queueing_length_experimental="7.46"/>
        </lanes>
    </data>
    <data timestep="39.00">
        <lanes>
            <lane id="2_1_1" queueing_time="12.00" queueing_length="13.02" queueing_length_experimental="20.79"/>
            <lane id="2_1_2" queueing_time="0.50" queueing_length="6.00" queueing_length_experimental="6.00"/>
            <lane id="2_1_3" queueing_time="2.50" queueing_length="6.40" queueing_length_experimental="6.40"/>
            <lane id="3_1_1" queueing_time="0.50" queueing_length="7.53" queueing_length_experimental="7.53"/>
            <lane id="5_1_1" queueing_time="1.00" queueing_length="7.46" queueing_length_experimental="7.46"/>
        </lanes>
    </data>
    <data timestep="39.50">
        <lanes>
            <lane id="2_1_1" queueing_time="12.50" queueing_length="20.79" queueing_length_experimental="20.79"/>
            <lane id="2_1_2" queueing_time="1.00" queueing_length="6.00" queueing_length_experimental="6.00"/>
            <lane id="2_1_3" queueing_time="3.00" queueing_length="6.40" queueing_length_experimental="6.40"/>
            <lane id="3_1_1" queueing_time="1.00" queueing_length="7.53" queueing_length_experimental="7.53"/>
            <lane id="5_1_1" queueing_time="1.50" queueing_length="7.46" queueing_length_experimental="7.46"/>
        </lanes>
    </data>
    <data timestep="40.00">
        <lanes>
            <lane id="2_1_1" queueing_time="13.00" queueing_length="13.01" queueing_length_experimental="20.40"/>
            <lane id="2_1_2" queueing_time="1.50" queueing_length="6.00" queueing_length_experimental="6.00"/>
            <lane id="2_1_3" queueing_time="3.50" queueing_length="6.40" queueing_length_experimental="6.40"/>
            <lane id="3_1_1" queueing_time="1.50" queueing_length="7.53" queueing_length_experimental="7.53"/>
            <lane id="5_1_1" queueing_time="2.00" queueing_length="7.46" queueing_length_experimental="7.46"/>
        </lanes>
    </data>
    <data timestep="40.50">
        <lanes>
            <lane id="2_1_1" queueing_time="13.50" queueing_length="20.40" queueing_length_experimental="20.40"/>
            <lane id="2_1_2" queueing_time="2.00" queueing_length="6.00" queueing_length_experimental="6.00"/>
            <lane id="2_1_3" queueing_time="4.00" queueing_length="6.40" queueing_length_experimental="6.40"/>
            <lane id="3_1_1" queueing_time="2.00" queueing_length="7.53" queueing_length_experimental="7.53"/>
            <lane id="5_1_1" queueing_time="2.50" queueing_length="7.46" queueing_length_experimental="7.46"/>
        </lanes>
    </data>
    <data timestep="41.00">
        <lanes>
            <lane id="2_1_1" queueing_time="14.00" queueing_length="13.01" queueing_length_experimental="20.21"/>
            <lane id="2_1_2" queueing_time="2.50" queueing_length="6.00" queueing_length_experimental="6.00"/>
            <lane id="2_1_3" queueing_time="4.50" queueing_length="6.40" queueing_length_experimental="6.40"/>
            <lane id="3_1_1" queueing_time="2.50" queueing_length="7.53" queueing_length_experimental="7.53"/>
            <lane id="5_1_1" queueing_time="3.00" queueing_length="7.46" queueing_length_experimental="7.46"/>
        </lanes>
    </data>
    <data timestep="41.50">
        <lanes>
            <lane id="2_1_1" queueing_time="14.50" queueing_length="20.21" queueing_length_experimental="20.21"/>
            <lane id="2_1_2" queueing_time="3.00" queueing_length="6.00" queueing_length_experimental="6.00"/>
            <lane id="2_1_3" queueing_time="5.00" queueing_length="6.40" queueing_length_experimental="6.40"/>
            <lane id="3_1_1" queueing_time="3.00" queueing_length="7.53" queueing_length_experimental="7.53"/>
            <lane id="5_1_1" queueing_time="3.50" queueing_length="7.46" queueing_length_experimental="7.46"/>
        </lanes>
    </data>
    <data timestep="42.00">
        <lanes>
            <lane id="2_1_1" queueing_time="7.50" queueing_length="13.00" queueing_length_experimental="20.11"/>
            <lane id="2_1_3" queueing_time="0.00" queueing_length="0.00" queueing_length_experimental="6.31"/>
            <lane id="3_1_1" queueing_time="3.50" queueing_length="7.53" queueing_length_experimental="7.53"/>
            <lane id="5_1_1" queueing_time="4.00" queueing_length="7.46" queueing_length_experimental="7.46"/>
            <lane id="5_1_2" queueing_time="0.00" queueing_length="0.00" queueing_length_experimental="16.70"/>
        </lanes>
    </data>
    <data timestep="42.50">
        <lanes>
            <lane id="2_1_1" queueing_time="0.50" queueing_length="20.11" queueing_length_experimental="20.11"/>
            <lane id="2_1_3" queueing_time="0.00" queueing_length="0.00" queueing_length_experimental="6.17"/>
            <lane id="3_1_1" queueing_time="4.00" queueing_length="7.53" queueing_length_experimental="7.53"/>
            <lane id="5_1_1" queueing_time="4.50" queueing_length="7.46" queueing_length_experimental="7.46"/>
        </lanes>
    </data>
    <data timestep="43.00">
        <lanes>
            <lane id="2_1_1" queueing_time="0.00" queueing_length="0.00" queueing_length_experimental="19.87"/>
            <lane id="2_1_3" queueing_time="0.00" queueing_length="0.00" queueing_length_experimental="6.00"/>
            <lane id="3_1_1" queueing_time="0.00" queueing_length="0.00" queueing_length_experimental="6.92"/>
            <lane id="5_1_1" queueing_time="5.00" queueing_length="7.46" queueing_length_experimental="7.46"/>
        </lanes>
    </data>
    <data timestep="43.50">
        <lanes>
            <lane id="2_1_1" queueing_time="0.00" queueing_length="0.00" queueing_length_experimental="19.28"/>
            <lane id="2_1_3" queueing_time="0.50" queueing_length="6.00" queueing_length_experimental="6.00"/>
            <lane id="3_1_1" queueing_time="0.00" queueing_length="0.00" queueing_length_experimental="6.61"/>
            <lane id="5_1_1" queueing_time="5.50" queueing_length="7.46" queueing_length_experimental="7.46"/>
            <lane id="5_1_2" queueing_time="0.00" queueing_length="0.00" queueing_length_experimental="14.87"/>
        </lanes>
    </data>
    <data timestep="44.00">
        <lanes>
            <lane id="2_1_3" queueing_time="1.00" queueing_length="6.00" queueing_length_experimental="6.00"/>
            <lane id="3_1_1" queueing_time="0.00" queueing_length="0.00" queueing_length_experimental="6.50"/>
            <lane id="5_1_1" queueing_time="6.00" queueing_length="7.46" queueing_length_experimental="7.46"/>
        </lanes>
    </data>
    <data timestep="44.50">
        <lanes>
            <lane id="2_1_3" queueing_time="1.50" queueing_length="6.00" queueing_length_experimental="6.00"/>
            <lane id="3_1_1" queueing_time="0.50" queueing_length="6.50" queueing_length_experimental="6.50"/>
            <lane id="5_1_1" queueing_time="0.00" queueing_length="0.00" queueing_length_experimental="6.94"/>
        </lanes>
    </data>
    <data timestep="45.00">
        <lanes>
            <lane id="2_1_3" queueing_time="2.00" queueing_length="6.00" queueing_length_experimental="6.00"/>
            <lane id="3_1_1" queueing_time="1.00" queueing_length="6.50" queueing_length_experimental="6.50"/>
            <lane id="5_1_1" queueing_time="0.00" queueing_length="0.00" queueing_length_experimental="6.66"/>
        </lanes>
    </data>
    <data timestep="45.50">
        <lanes>
            <lane id="2_1_3" queueing_time="2.50" queueing_length="6.00" queueing_length_experimental="6.00"/>
            <lane id="3_1_1" queueing_time="1.50" queueing_length="6.50" queueing_length_experimental="6.50"/>
            <lane id="5_1_1" queueing_time="0.00" queueing_length="0.00" queueing_length_experimental="6.54"/>
        </lanes>
    </data>
    <data timestep="46.00">
        <lanes>
            <lane id="2_1_3" queueing_time="3.00" queueing_length="6.00" queueing_length_experimental="6.00"/>
            <lane id="3_1_1" queueing_time="2.00" queueing_length="6.50" queueing_length_experimental="6.50"/>
            <lane id="5_1_1" queueing_time="0.50" queueing_length="6.54" queueing_length_experimental="6.54"/>
        </lanes>
    </data>
    <data timestep="46.50">
        <lanes>
            <lane id="2_1_3" queueing_time="3.50" queueing_length="6.00" queueing_length_experimental="6.00"/>
            <lane id="3_1_1" queueing_time="2.50" queueing_length="6.50" queueing_length_experimental="6.50"/>
            <lane id="5_1_1" queueing_time="1.00" queueing_length="6.54" queueing_length_experimental="6.54"/>
            <lane id="5_1_2" queueing_time="0.00" queueing_length="0.00" queueing_length_experimental="7.97"/>
        </lanes>
    </data>
    <data timestep="47.00">
        <lanes>
            <lane id="2_1_3" queueing_time="4.00" queueing_length="6.00" queueing_length_experimental="6.00"/>
            <lane id="3_1_1" queueing_time="3.00" queueing_length="6.50" queueing_length_experimental="18.78"/>
            <lane id="5_1_1" queueing_time="1.50" queueing_length="6.54" queueing_length_experimental="6.54"/>
            <lane id="5_1_2" queueing_time="0.50" queueing_length="7.94" queueing_length_experimental="7.94"/>
        </lanes>
    </data>
    <data timestep="47.50">
        <lanes>
            <lane id="2_1_3" queueing_time="4.50" queueing_length="6.00" queueing_length_experimental="6.00"/>
            <lane id="3_1_1" queueing_time="3.50" queueing_length="6.50" queueing_length_experimental="6.50"/>
            <lane id="5_1_1" queueing_time="2.00" queueing_length="6.54" queueing_length_experimental="6.54"/>
            <lane id="5_1_2" queueing_time="1.00" queueing_length="7.94" queueing_length_experimental="7.94"/>
        </lanes>
    </data>
    <data timestep="48.00">
        <lanes>
            <lane id="2_1_3" queueing_time="5.00" queueing_length="6.00" queueing_length_experimental="6.00"/>
            <lane id="3_1_1" queueing_time="4.00" queueing_length="6.50" queueing_length_experimental="6.50"/>
            <lane id="5_1_1" queueing_time="2.50" queueing_length="6.54" queueing_length_experimental="6.54"/>
            <lane id="5_1_2" queueing_time="1.50" queueing_length="7.94" queueing_length_experimental="7.94"/>
        </lanes>
    </data>
    <data timestep="48.50">
        <lanes>
            <lane id="2_1_3" queueing_time="5.50" queueing_length="6.00" queueing_length_experimental="6.00"/>
            <lane id="3_1_1" queueing_time="0.00" queueing_length="0.00" queueing_length_experimental="16.54"/>
            <lane id="5_1_1" queueing_time="3.00" queueing_length="6.54" queueing_length_experimental="18.00"/>
        </lanes>
    </data>
    <data timestep="49.00">
        <lanes>
            <lane id="2_1_3" queueing_time="6.00" queueing_length="6.00" queueing_length_experimental="6.00"/>
            <lane id="3_1_1" queueing_time="0.50" queueing_length="6.00" queueing_length_experimental="16.25"/>
            <lane id="5_1_1" queueing_time="0.00" queueing_length="0.00" queueing_length_experimental="17.50"/>
        </lanes>
    </data>
    <data timestep="49.50">
        <lanes>
            <lane id="2_1_3" queueing_time="6.50" queueing_length="6.00" queueing_length_experimental="6.00"/>
            <lane id="3_1_1" queueing_time="1.00" queueing_length="6.00" queueing_length_experimental="6.00"/>
            <lane id="5_1_1" queueing_time="0.50" queueing_length="6.00" queueing_length_experimental="6.00"/>
            <lane id="5_1_2" queueing_time="0.00" queueing_length="0.00" queueing_length_experimental="6.00"/>
        </lanes>
    </data>
    <data timestep="50.00">
        <lanes>
            <lane id="2_1_3" queueing_time="7.00" queueing_length="6.00" queueing_length_experimental="6.00"/>
            <lane id="3_1_1" queueing_time="1.50" queueing_length="6.00" queueing_length_experimental="14.90"/>
            <lane id="5_1_1" queueing_time="1.00" queueing_length="6.00" queueing_length_experimental="6.00"/>
            <lane id="5_1_2" queueing_time="0.50" queueing_length="6.00" queueing_length_experimental="6.00"/>
        </lanes>
    </data>
    <data timestep="50.50">
        <lanes>
            <lane id="2_1_3" queueing_time="7.50" queueing_length="6.00" queueing_length_experimental="6.00"/>
            <lane id="3_1_1" queueing_time="2.00" queueing_length="6.00" queueing_length_experimental="14.29"/>
            <lane id="5_1_1" queueing_time="1.50" queueing_length="6.00" queueing_length_experimental="6.00"/>
            <lane id="5_1_2" queueing_time="1.00" queueing_length="6.00" queueing_length_experimental="6.00"/>
        </lanes>
    </data>
    <data timestep="51.00">
        <lanes>
            <lane id="2_1_2" queueing_time="0.00" queueing_length="0.00" queueing_length_experimental="7.35"/>
            <lane id="2_1_3" queueing_time="8.00" queueing_length="6.00" queueing_length_experimental="6.00"/>
            <lane id="3_1_1" queueing_time="2.50" queueing_length="6.00" queueing_length_experimental="14.19"/>
            <lane id="3_1_2" queueing_time="0.00" queueing_length="0.00" queueing_length_experimental="6.00"/>
            <lane id="5_1_1" queueing_time="2.00" queueing_length="6.00" queueing_length_experimental="14.51"/>
            <lane id="5_1_2" queueing_time="1.50" queueing_length="6.00" queueing_length_experimental="6.00"/>
        </lanes>
    </data>
    <data timestep="51.50">
        <lanes>
            <lane id="2_1_2" queueing_time="0.00" queueing_length="0.00" queueing_length_experimental="6.97"/>
            <lane id="2_1_3" queueing_time="8.50" queueing_length="6.00" queueing_length_experimental="6.00"/>
            <lane id="3_1_1" queueing_time="3.00" queueing_length="6.00" queueing_length_experimental="13.67"/>
            <lane id="3_1_2" queueing_time="0.50" queueing_length="6.00" queueing_length_experimental="6.00"/>
            <lane id="5_1_1" queueing_time="2.50" queueing_length="6.00" queueing_length_experimental="14.02"/>
            <lane id="5_1_2" queueing_time="2.00" queueing_length="6.00" queueing_length_experimental="14.96"/>
        </lanes>
    </data>
    <data timestep="52.00">
        <lanes>
            <lane id="2_1_2" queueing_time="0.00" queueing_length="0.00" queueing_length_experimental="6.83"/>
            <lane id="2_1_3" queueing_time="9.00" queueing_length="6.00" queueing_length_experimental="6.00"/>
            <lane id="3_1_1" queueing_time="3.50" queueing_length="13.67" queueing_length_experimental="13.67"/>
            <lane id="3_1_2" queueing_time="1.00" queueing_length="6.00" queueing_length_experimental="6.00"/>
            <lane id="5_1_1" queueing_time="3.00" queueing_length="6.00" queueing_length_experimental="13.95"/>
            <lane id="5_1_2" queueing_time="2.50" queueing_length="6.00" queueing_length_experimental="14.33"/>
        </lanes>
    </data>
    <data timestep="52.50">
        <lanes>
            <lane id="2_1_1" queueing_time="0.50" queueing_length="6.83" queueing_length_experimental="6.83"/>
            <lane id="2_1_3" queueing_time="9.50" queueing_length="6.00" queueing_length_experimental="6.00"/>
            <lane id="3_1_1" queueing_time="4.00" queueing_length="6.00" queueing_length_experimental="13.34"/>
            <lane id="3_1_2" queueing_time="1.50" queueing_length="6.00" queueing_length_experimental="6.00"/>
            <lane id="5_1_1" queueing_time="3.50" queueing_length="6.00" queueing_length_experimental="13.50"/>
            <lane id="5_1_2" queueing_time="3.00" queueing_length="6.00" queueing_length_experimental="14.24"/>
        </lanes>
    </data>
    <data timestep="53.00">
        <lanes>
            <lane id="2_1_1" queueing_time="1.00" queueing_length="6.83" queueing_length_experimental="6.83"/>
            <lane id="2_1_3" queueing_time="10.00" queueing_length="6.00" queueing_length_experimental="6.00"/>
            <lane id="3_1_1" queueing_time="4.50" queueing_length="13.34" queueing_length_experimental="13.34"/>
            <lane id="3_1_2" queueing_time="2.00" queueing_length="6.00" queueing_length_experimental="6.00"/>
            <lane id="5_1_1" queueing_time="4.00" queueing_length="13.50" queueing_length_experimental="13.50"/>
            <lane id="5_1_2" queueing_time="3.50" queueing_length="6.00" queueing_length_experimental="24.03"/>
        </lanes>
    </data>
    <data timestep="53.50">
        <lanes>
            <lane id="2_1_1" queueing_time="1.50" queueing_length="6.83" queueing_length_experimental="6.83"/>
            <lane id="2_1_3" queueing_time="10.50" queueing_length="6.00" queueing_length_experimental="6.00"/>
            <lane id="3_1_1" queueing_time="5.00" queueing_length="6.00" queueing_length_experimental="13.17"/>
            <lane id="3_1_2" queueing_time="2.50" queueing_length="6.00" queueing_length_experimental="6.00"/>
            <lane id="5_1_1" queueing_time="4.50" queueing_length="6.00" queueing_length_experimental="13.25"/>
            <lane id="5_1_2" queueing_time="4.00" queueing_length="13.70" queueing_length_experimental="13.70"/>
        </lanes>
    </data>
    <data timestep="54.00">
        <lanes>
            <lane id="2_1_1" queueing_time="2.00" queueing_length="6.83" queueing_length_experimental="6.83"/>