<?xml version="1.0" encoding="UTF-8"?>

<!-- generated on 2025-02-27 20:52:48 by Eclipse SUMO GUI Version 1.20.0
<configuration xmlns:xsi="http://www.w3.org/2001/XMLSchema-instance" xsi:noNamespaceSchemaLocation="http://sumo.dlr.de/xsd/sumoConfiguration.xsd">

    <input>
        <net-file value="/home/naderian/Desktop/Shakiba/CET593/environment/network_model/single_intersection_pedestrian_X.net.xml"/>
        <route-files value="/home/naderian/Desktop/Shakiba/CET593/environment/network_model/single_intersection.rou.xml"/>
        <additional-files value="/home/naderian/Desktop/Shakiba/CET593/environment/network_model/single_intersection.add_fixed_time.xml"/>
    </input>

    <output>
        <queue-output value="/home/naderian/Desktop/Shakiba/CET593/environment/simulation_data/single_intersection/queues_fixed_time_symmetric_pene_100.xml"/>
        <tripinfo-output value="/home/naderian/Desktop/Shakiba/CET593/environment/simulation_data/single_intersection/tripinfo_fixed_time_symmetric_pene_100.xml"/>
    </output>

    <time>
        <begin value="0"/>
        <step-length value="0.5"/>
    </time>

    <processing>
        <waiting-time-memory value="1000"/>
    </processing>

    <report>
        <verbose value="true"/>
        <no-step-log value="true"/>
    </report>

    <traci_server>
        <remote-port value="59689"/>
    </traci_server>

    <gui_only>
        <start value="true"/>
    </gui_only>

</configuration>
-->

<queue-export xmlns:xsi="http://www.w3.org/2001/XMLSchema-instance" xsi:noNamespaceSchemaLocation="http://sumo.dlr.de/xsd/queue_file.xsd">
    <data timestep="0.00">
        <lanes/>
    </data>
    <data timestep="0.50">
        <lanes/>
    </data>
    <data timestep="1.00">
        <lanes/>
    </data>
    <data timestep="1.50">
        <lanes/>
    </data>
    <data timestep="2.00">
        <lanes/>
    </data>
    <data timestep="2.50">
        <lanes/>
    </data>
    <data timestep="3.00">
        <lanes/>
    </data>
    <data timestep="3.50">
        <lanes/>
    </data>
    <data timestep="4.00">
        <lanes/>
    </data>
    <data timestep="4.50">
        <lanes/>
    </data>
    <data timestep="5.00">
        <lanes/>
    </data>
    <data timestep="5.50">
        <lanes/>
    </data>
    <data timestep="6.00">
        <lanes/>
    </data>
    <data timestep="6.50">
        <lanes/>
    </data>
    <data timestep="7.00">
        <lanes/>
    </data>
    <data timestep="7.50">
        <lanes/>
    </data>
    <data timestep="8.00">
        <lanes/>
    </data>
    <data timestep="8.50">
        <lanes/>
    </data>
    <data timestep="9.00">
        <lanes/>
    </data>
    <data timestep="9.50">
        <lanes/>
    </data>
    <data timestep="10.00">
        <lanes/>
    </data>
    <data timestep="10.50">
        <lanes/>
    </data>
    <data timestep="11.00">
        <lanes/>
    </data>
    <data timestep="11.50">
        <lanes/>
    </data>
    <data timestep="12.00">
        <lanes/>
    </data>
    <data timestep="12.50">
        <lanes/>
    </data>
    <data timestep="13.00">
        <lanes/>
    </data>
    <data timestep="13.50">
        <lanes/>
    </data>
    <data timestep="14.00">
        <lanes/>
    </data>
    <data timestep="14.50">
        <lanes/>
    </data>
    <data timestep="15.00">
        <lanes/>
    </data>
    <data timestep="15.50">
        <lanes/>
    </data>
    <data timestep="16.00">
        <lanes/>
    </data>
    <data timestep="16.50">
        <lanes/>
    </data>
    <data timestep="17.00">
        <lanes/>
    </data>
    <data timestep="17.50">
        <lanes/>
    </data>
    <data timestep="18.00">
        <lanes/>
    </data>
    <data timestep="18.50">
        <lanes/>
    </data>
    <data timestep="19.00">
        <lanes/>
    </data>
    <data timestep="19.50">
        <lanes/>
    </data>
    <data timestep="20.00">
        <lanes/>
    </data>
    <data timestep="20.50">
        <lanes>
            <lane id="2_1_1" queueing_time="0.00" queueing_length="0.00" queueing_length_experimental="6.11"/>
        </lanes>
    </data>
    <data timestep="21.00">
        <lanes>
            <lane id="2_1_1" queueing_time="0.00" queueing_length="0.00" queueing_length_experimental="6.03"/>
        </lanes>
    </data>
    <data timestep="21.50">
        <lanes>
            <lane id="2_1_1" queueing_time="0.50" queueing_length="6.01" queueing_length_experimental="6.01"/>
        </lanes>
    </data>
    <data timestep="22.00">
        <lanes>
            <lane id="2_1_1" queueing_time="1.00" queueing_length="6.00" queueing_length_experimental="6.00"/>
        </lanes>
    </data>
    <data timestep="22.50">
        <lanes>
            <lane id="2_1_1" queueing_time="1.50" queueing_length="6.00" queueing_length_experimental="6.00"/>
        </lanes>
    </data>
    <data timestep="23.00">
        <lanes>
            <lane id="2_1_1" queueing_time="2.00" queueing_length="6.00" queueing_length_experimental="6.00"/>
        </lanes>
    </data>
    <data timestep="23.50">
        <lanes>
            <lane id="2_1_1" queueing_time="2.50" queueing_length="6.00" queueing_length_experimental="6.00"/>
        </lanes>
    </data>
    <data timestep="24.00">
        <lanes>
            <lane id="2_1_1" queueing_time="3.00" queueing_length="6.00" queueing_length_experimental="6.00"/>
        </lanes>
    </data>
    <data timestep="24.50">
        <lanes>
            <lane id="2_1_1" queueing_time="3.50" queueing_length="6.00" queueing_length_experimental="6.00"/>
        </lanes>
    </data>
    <data timestep="25.00">
        <lanes>
            <lane id="2_1_1" queueing_time="4.00" queueing_length="6.00" queueing_length_experimental="6.00"/>
        </lanes>
    </data>
    <data timestep="25.50">
        <lanes>
            <lane id="2_1_1" queueing_time="4.50" queueing_length="6.00" queueing_length_experimental="6.00"/>
        </lanes>
    </data>
    <data timestep="26.00">
        <lanes>
            <lane id="2_1_1" queueing_time="5.00" queueing_length="6.00" queueing_length_experimental="6.00"/>
        </lanes>
    </data>
    <data timestep="26.50">
        <lanes>
            <lane id="2_1_1" queueing_time="5.50" queueing_length="6.00" queueing_length_experimental="6.00"/>
        </lanes>
    </data>
    <data timestep="27.00">
        <lanes>
            <lane id="2_1_1" queueing_time="6.00" queueing_length="6.00" queueing_length_experimental="13.92"/>
        </lanes>
    </data>
    <data timestep="27.50">
        <lanes>
            <lane id="2_1_1" queueing_time="6.50" queueing_length="6.00" queueing_length_experimental="13.50"/>
        </lanes>
    </data>
    <data timestep="28.00">
        <lanes>
            <lane id="2_1_1" queueing_time="7.00" queueing_length="6.00" queueing_length_experimental="13.37"/>
        </lanes>
    </data>
    <data timestep="28.50">
        <lanes>
            <lane id="2_1_1" queueing_time="7.50" queueing_length="6.00" queueing_length_experimental="13.27"/>
        </lanes>
    </data>
    <data timestep="29.00">
        <lanes>
            <lane id="2_1_1" queueing_time="8.00" queueing_length="6.00" queueing_length_experimental="13.17"/>
            <lane id="2_1_2" queueing_time="0.00" queueing_length="0.00" queueing_length_experimental="6.02"/>
        </lanes>
    </data>
    <data timestep="29.50">
        <lanes>
            <lane id="2_1_1" queueing_time="8.50" queueing_length="6.00" queueing_length_experimental="13.10"/>
            <lane id="2_1_2" queueing_time="0.50" queueing_length="6.00" queueing_length_experimental="6.00"/>
        </lanes>
    </data>
    <data timestep="30.00">
        <lanes>
            <lane id="2_1_1" queueing_time="9.00" queueing_length="13.06" queueing_length_experimental="13.06"/>
            <lane id="2_1_2" queueing_time="1.00" queueing_length="6.00" queueing_length_experimental="6.00"/>
        </lanes>
    </data>
    <data timestep="30.50">
        <lanes>
            <lane id="2_1_1" queueing_time="9.50" queueing_length="13.04" queueing_length_experimental="13.04"/>
            <lane id="2_1_2" queueing_time="1.50" queueing_length="6.00" queueing_length_experimental="6.00"/>
        </lanes>
    </data>
    <data timestep="31.00">
        <lanes>
            <lane id="2_1_1" queueing_time="10.00" queueing_length="13.03" queueing_length_experimental="13.03"/>
            <lane id="2_1_2" queueing_time="2.00" queueing_length="6.00" queueing_length_experimental="6.00"/>
        </lanes>
    </data>
    <data timestep="31.50">
        <lanes>
            <lane id="2_1_1" queueing_time="10.50" queueing_length="13.01" queueing_length_experimental="13.01"/>
            <lane id="2_1_2" queueing_time="2.50" queueing_length="6.00" queueing_length_experimental="6.00"/>
        </lanes>
    </data>
    <data timestep="32.00">
        <lanes>
            <lane id="2_1_1" queueing_time="11.00" queueing_length="13.01" queueing_length_experimental="13.01"/>
            <lane id="2_1_2" queueing_time="3.00" queueing_length="6.00" queueing_length_experimental="14.64"/>
        </lanes>
    </data>
    <data timestep="32.50">
        <lanes>
            <lane id="2_1_1" queueing_time="11.50" queueing_length="13.01" queueing_length_experimental="13.01"/>
            <lane id="2_1_2" queueing_time="3.50" queueing_length="6.00" queueing_length_experimental="6.00"/>
        </lanes>
    </data>
    <data timestep="33.00">
        <lanes>
            <lane id="2_1_1" queueing_time="12.00" queueing_length="13.00" queueing_length_experimental="13.00"/>
            <lane id="2_1_2" queueing_time="4.00" queueing_length="6.00" queueing_length_experimental="13.52"/>
        </lanes>
    </data>
    <data timestep="33.50">
        <lanes>
            <lane id="2_1_1" queueing_time="12.50" queueing_length="13.00" queueing_length_experimental="13.00"/>
            <lane id="2_1_2" queueing_time="4.50" queueing_length="6.00" queueing_length_experimental="13.29"/>
        </lanes>
    </data>
    <data timestep="34.00">
        <lanes>
            <lane id="2_1_1" queueing_time="13.00" queueing_length="13.00" queueing_length_experimental="13.00"/>
            <lane id="2_1_2" queueing_time="5.00" queueing_length="6.00" queueing_length_experimental="13.21"/>
            <lane id="4_1_3" queueing_time="0.00" queueing_length="0.00" queueing_length_experimental="6.04"/>
        </lanes>
    </data>
    <data timestep="34.50">
        <lanes>
            <lane id="2_1_1" queueing_time="13.50" queueing_length="13.00" queueing_length_experimental="13.00"/>
            <lane id="2_1_2" queueing_time="5.50" queueing_length="6.00" queueing_length_experimental="13.13"/>
            <lane id="4_1_3" queueing_time="0.50" queueing_length="6.01" queueing_length_experimental="6.01"/>
        </lanes>
    </data>
    <data timestep="35.00">
        <lanes>
            <lane id="2_1_1" queueing_time="14.00" queueing_length="13.00" queueing_length_experimental="13.00"/>
            <lane id="2_1_2" queueing_time="6.00" queueing_length="13.08" queueing_length_experimental="13.08"/>
            <lane id="4_1_3" queueing_time="1.00" queueing_length="6.00" queueing_length_experimental="6.00"/>
        </lanes>
    </data>
    <data timestep="35.50">
        <lanes>
            <lane id="2_1_1" queueing_time="14.50" queueing_length="13.00" queueing_length_experimental="13.00"/>
            <lane id="2_1_2" queueing_time="6.50" queueing_length="13.05" queueing_length_experimental="13.05"/>
            <lane id="4_1_3" queueing_time="1.50" queueing_length="6.00" queueing_length_experimental="6.00"/>
        </lanes>
    </data>
    <data timestep="36.00">
        <lanes>
            <lane id="2_1_1" queueing_time="15.00" queueing_length="13.00" queueing_length_experimental="13.00"/>
            <lane id="2_1_2" queueing_time="7.00" queueing_length="13.03" queueing_length_experimental="13.03"/>
            <lane id="4_1_3" queueing_time="2.00" queueing_length="6.00" queueing_length_experimental="6.00"/>
        </lanes>
    </data>
    <data timestep="36.50">
        <lanes>
            <lane id="2_1_1" queueing_time="15.50" queueing_length="13.00" queueing_length_experimental="13.00"/>
            <lane id="2_1_2" queueing_time="7.50" queueing_length="13.02" queueing_length_experimental="13.02"/>
            <lane id="4_1_3" queueing_time="2.50" queueing_length="6.00" queueing_length_experimental="6.00"/>
        </lanes>
    </data>
    <data timestep="37.00">
        <lanes>
            <lane id="2_1_1" queueing_time="16.00" queueing_length="13.00" queueing_length_experimental="13.00"/>
            <lane id="2_1_2" queueing_time="8.00" queueing_length="13.01" queueing_length_experimental="13.01"/>
            <lane id="4_1_3" queueing_time="3.00" queueing_length="6.00" queueing_length_experimental="6.00"/>
        </lanes>
    </data>
    <data timestep="37.50">
        <lanes>
            <lane id="2_1_1" queueing_time="16.50" queueing_length="13.00" queueing_length_experimental="13.00"/>
            <lane id="2_1_2" queueing_time="8.50" queueing_length="13.01" queueing_length_experimental="13.01"/>
            <lane id="4_1_3" queueing_time="3.50" queueing_length="6.00" queueing_length_experimental="6.00"/>
        </lanes>
    </data>
    <data timestep="38.00">
        <lanes>
            <lane id="2_1_1" queueing_time="17.00" queueing_length="13.00" queueing_length_experimental="13.00"/>
            <lane id="2_1_2" queueing_time="9.00" queueing_length="13.00" queueing_length_experimental="13.00"/>
            <lane id="4_1_3" queueing_time="4.00" queueing_length="6.00" queueing_length_experimental="6.00"/>
        </lanes>
    </data>
    <data timestep="38.50">
        <lanes>
            <lane id="2_1_1" queueing_time="17.50" queueing_length="13.00" queueing_length_experimental="13.00"/>
            <lane id="2_1_2" queueing_time="9.50" queueing_length="13.00" queueing_length_experimental="13.00"/>
            <lane id="4_1_1" queueing_time="0.00" queueing_length="0.00" queueing_length_experimental="6.07"/>
            <lane id="4_1_3" queueing_time="4.50" queueing_length="6.00" queueing_length_experimental="6.00"/>
        </lanes>
    </data>
    <data timestep="39.00">
        <lanes>
            <lane id="2_1_1" queueing_time="18.00" queueing_length="13.00" queueing_length_experimental="13.00"/>
            <lane id="2_1_2" queueing_time="10.00" queueing_length="13.00" queueing_length_experimental="13.00"/>
            <lane id="4_1_1" queueing_time="0.50" queueing_length="6.03" queueing_length_experimental="6.03"/>
            <lane id="4_1_3" queueing_time="5.00" queueing_length="6.00" queueing_length_experimental="6.00"/>
        </lanes>
    </data>
    <data timestep="39.50">
        <lanes>
            <lane id="2_1_1" queueing_time="18.50" queueing_length="13.00" queueing_length_experimental="13.00"/>
            <lane id="2_1_2" queueing_time="10.50" queueing_length="13.00" queueing_length_experimental="13.00"/>
            <lane id="4_1_1" queueing_time="1.00" queueing_length="6.01" queueing_length_experimental="6.01"/>
            <lane id="4_1_3" queueing_time="5.50" queueing_length="6.00" queueing_length_experimental="6.00"/>
        </lanes>
    </data>
    <data timestep="40.00">
        <lanes>
            <lane id="2_1_1" queueing_time="19.00" queueing_length="13.00" queueing_length_experimental="13.00"/>
            <lane id="2_1_2" queueing_time="11.00" queueing_length="13.00" queueing_length_experimental="13.00"/>
            <lane id="4_1_1" queueing_time="1.50" queueing_length="6.01" queueing_length_experimental="6.01"/>
            <lane id="4_1_3" queueing_time="6.00" queueing_length="6.00" queueing_length_experimental="6.00"/>
        </lanes>
    </data>
    <data timestep="40.50">
        <lanes>
            <lane id="2_1_1" queueing_time="19.50" queueing_length="13.00" queueing_length_experimental="13.00"/>
            <lane id="2_1_2" queueing_time="11.50" queueing_length="13.00" queueing_length_experimental="13.00"/>
            <lane id="4_1_1" queueing_time="2.00" queueing_length="6.00" queueing_length_experimental="6.00"/>
            <lane id="4_1_3" queueing_time="6.50" queueing_length="6.00" queueing_length_experimental="6.00"/>
        </lanes>
    </data>
    <data timestep="41.00">
        <lanes>
            <lane id="2_1_1" queueing_time="20.00" queueing_length="13.00" queueing_length_experimental="13.00"/>
            <lane id="2_1_2" queueing_time="12.00" queueing_length="13.00" queueing_length_experimental="13.00"/>
            <lane id="4_1_1" queueing_time="2.50" queueing_length="6.00" queueing_length_experimental="6.00"/>
            <lane id="4_1_3" queueing_time="7.00" queueing_length="6.00" queueing_length_experimental="6.00"/>
        </lanes>
    </data>
    <data timestep="41.50">
        <lanes>
            <lane id="2_1_1" queueing_time="20.50" queueing_length="13.00" queueing_length_experimental="13.00"/>
            <lane id="2_1_2" queueing_time="12.50" queueing_length="13.00" queueing_length_experimental="13.00"/>
            <lane id="4_1_1" queueing_time="3.00" queueing_length="6.00" queueing_length_experimental="6.00"/>
            <lane id="4_1_3" queueing_time="7.50" queueing_length="6.00" queueing_length_experimental="6.00"/>
        </lanes>
    </data>
    <data timestep="42.00">
        <lanes>
            <lane id="2_1_1" queueing_time="21.00" queueing_length="13.00" queueing_length_experimental="13.00"/>
            <lane id="2_1_2" queueing_time="13.00" queueing_length="13.00" queueing_length_experimental="13.00"/>
            <lane id="4_1_1" queueing_time="3.50" queueing_length="6.00" queueing_length_experimental="6.00"/>
            <lane id="4_1_2" queueing_time="0.00" queueing_length="0.00" queueing_length_experimental="6.12"/>
            <lane id="4_1_3" queueing_time="8.00" queueing_length="6.00" queueing_length_experimental="6.00"/>
        </lanes>
    </data>
    <data timestep="42.50">
        <lanes>
            <lane id="2_1_1" queueing_time="21.50" queueing_length="13.00" queueing_length_experimental="13.00"/>
            <lane id="2_1_2" queueing_time="13.50" queueing_length="13.00" queueing_length_experimental="13.00"/>
            <lane id="4_1_1" queueing_time="4.00" queueing_length="6.00" queueing_length_experimental="6.00"/>
            <lane id="4_1_2" queueing_time="0.00" queueing_length="0.00" queueing_length_experimental="6.00"/>
            <lane id="4_1_3" queueing_time="8.50" queueing_length="6.00" queueing_length_experimental="6.00"/>
            <lane id="5_1_1" queueing_time="0.00" queueing_length="0.00" queueing_length_experimental="6.04"/>
        </lanes>
    </data>
    <data timestep="43.00">
        <lanes>
            <lane id="2_1_1" queueing_time="22.00" queueing_length="13.00" queueing_length_experimental="13.00"/>
            <lane id="2_1_2" queueing_time="14.00" queueing_length="13.00" queueing_length_experimental="13.00"/>
            <lane id="4_1_1" queueing_time="4.50" queueing_length="6.00" queueing_length_experimental="6.00"/>
            <lane id="4_1_2" queueing_time="0.50" queueing_length="6.00" queueing_length_experimental="6.00"/>
            <lane id="4_1_3" queueing_time="9.00" queueing_length="6.00" queueing_length_experimental="6.00"/>
            <lane id="5_1_1" queueing_time="0.50" queueing_length="6.01" queueing_length_experimental="6.01"/>
        </lanes>
    </data>
    <data timestep="43.50">
        <lanes>
            <lane id="2_1_1" queueing_time="22.50" queueing_length="13.00" queueing_length_experimental="13.00"/>
            <lane id="2_1_2" queueing_time="14.50" queueing_length="13.00" queueing_length_experimental="13.00"/>
            <lane id="4_1_1" queueing_time="5.00" queueing_length="6.00" queueing_length_experimental="6.00"/>
            <lane id="4_1_2" queueing_time="1.00" queueing_length="6.00" queueing_length_experimental="6.00"/>
            <lane id="4_1_3" queueing_time="9.50" queueing_length="6.00" queueing_length_experimental="6.00"/>
            <lane id="5_1_1" queueing_time="1.00" queueing_length="6.00" queueing_length_experimental="6.00"/>
        </lanes>
    </data>
    <data timestep="44.00">
        <lanes>
            <lane id="2_1_1" queueing_time="23.00" queueing_length="13.00" queueing_length_experimental="13.00"/>
            <lane id="2_1_2" queueing_time="15.00" queueing_length="13.00" queueing_length_experimental="13.00"/>
            <lane id="4_1_1" queueing_time="5.50" queueing_length="6.00" queueing_length_experimental="6.00"/>
            <lane id="4_1_2" queueing_time="1.50" queueing_length="6.00" queueing_length_experimental="6.00"/>
            <lane id="4_1_3" queueing_time="10.00" queueing_length="6.00" queueing_length_experimental="6.00"/>
            <lane id="5_1_1" queueing_time="1.50" queueing_length="6.00" queueing_length_experimental="6.00"/>
        </lanes>
    </data>
    <data timestep="44.50">
        <lanes>
            <lane id="2_1_1" queueing_time="23.50" queueing_length="13.00" queueing_length_experimental="13.00"/>
            <lane id="2_1_2" queueing_time="15.50" queueing_length="13.00" queueing_length_experimental="13.00"/>
            <lane id="4_1_1" queueing_time="6.00" queueing_length="6.00" queueing_length_experimental="6.00"/>
            <lane id="4_1_2" queueing_time="2.00" queueing_length="6.00" queueing_length_experimental="6.00"/>
            <lane id="4_1_3" queueing_time="10.50" queueing_length="6.00" queueing_length_experimental="6.00"/>
            <lane id="5_1_1" queueing_time="2.00" queueing_length="6.00" queueing_length_experimental="6.00"/>
        </lanes>
    </data>
    <data timestep="45.00">
        <lanes>
            <lane id="2_1_1" queueing_time="24.00" queueing_length="13.00" queueing_length_experimental="13.00"/>
            <lane id="2_1_2" queueing_time="16.00" queueing_length="13.00" queueing_length_experimental="13.00"/>
            <lane id="4_1_1" queueing_time="6.50" queueing_length="6.00" queueing_length_experimental="6.00"/>
            <lane id="4_1_2" queueing_time="2.50" queueing_length="6.00" queueing_length_experimental="6.00"/>
            <lane id="4_1_3" queueing_time="11.00" queueing_length="6.00" queueing_length_experimental="6.00"/>
            <lane id="5_1_1" queueing_time="2.50" queueing_length="6.00" queueing_length_experimental="6.00"/>
        </lanes>
    </data>
    <data timestep="45.50">
        <lanes>
            <lane id="2_1_1" queueing_time="24.50" queueing_length="13.00" queueing_length_experimental="13.00"/>
            <lane id="2_1_2" queueing_time="16.50" queueing_length="13.00" queueing_length_experimental="13.00"/>
            <lane id="4_1_1" queueing_time="7.00" queueing_length="6.00" queueing_length_experimental="6.00"/>
            <lane id="4_1_2" queueing_time="3.00" queueing_length="6.00" queueing_length_experimental="6.00"/>
            <lane id="4_1_3" queueing_time="11.50" queueing_length="6.00" queueing_length_experimental="6.00"/>
            <lane id="5_1_1" queueing_time="3.00" queueing_length="6.00" queueing_length_experimental="6.00"/>
        </lanes>
    </data>
    <data timestep="46.00">
        <lanes>
            <lane id="2_1_1" queueing_time="25.00" queueing_length="13.00" queueing_length_experimental="13.00"/>
            <lane id="2_1_2" queueing_time="17.00" queueing_length="13.00" queueing_length_experimental="13.00"/>
            <lane id="4_1_1" queueing_time="7.50" queueing_length="6.00" queueing_length_experimental="6.00"/>
            <lane id="4_1_2" queueing_time="3.50" queueing_length="6.00" queueing_length_experimental="6.00"/>
            <lane id="4_1_3" queueing_time="12.00" queueing_length="6.00" queueing_length_experimental="6.00"/>
            <lane id="5_1_1" queueing_time="3.50" queueing_length="6.00" queueing_length_experimental="6.00"/>
        </lanes>
    </data>
    <data timestep="46.50">
        <lanes>
            <lane id="2_1_1" queueing_time="25.50" queueing_length="13.00" queueing_length_experimental="13.00"/>
            <lane id="2_1_2" queueing_time="17.50" queueing_length="13.00" queueing_length_experimental="13.00"/>
            <lane id="4_1_1" queueing_time="8.00" queueing_length="6.00" queueing_length_experimental="6.00"/>
            <lane id="4_1_2" queueing_time="4.00" queueing_length="6.00" queueing_length_experimental="6.00"/>
            <lane id="4_1_3" queueing_time="12.50" queueing_length="6.00" queueing_length_experimental="6.00"/>
            <lane id="5_1_1" queueing_time="4.00" queueing_length="6.00" queueing_length_experimental="6.00"/>
        </lanes>
    </data>
    <data timestep="47.00">
        <lanes>
            <lane id="2_1_1" queueing_time="26.00" queueing_length="13.00" queueing_length_experimental="13.00"/>
            <lane id="2_1_2" queueing_time="18.00" queueing_length="13.00" queueing_length_experimental="13.00"/>
            <lane id="4_1_1" queueing_time="8.50" queueing_length="6.00" queueing_length_experimental="6.00"/>
            <lane id="4_1_2" queueing_time="4.50" queueing_length="6.00" queueing_length_experimental="6.00"/>
            <lane id="4_1_3" queueing_time="13.00" queueing_length="6.00" queueing_length_experimental="6.00"/>
            <lane id="5_1_1" queueing_time="4.50" queueing_length="6.00" queueing_length_experimental="6.00"/>
        </lanes>
    </data>
    <data timestep="47.50">
        <lanes>
            <lane id="2_1_1" queueing_time="26.50" queueing_length="13.00" queueing_length_experimental="13.00"/>
            <lane id="2_1_2" queueing_time="18.50" queueing_length="13.00" queueing_length_experimental="13.00"/>
            <lane id="4_1_1" queueing_time="9.00" queueing_length="6.00" queueing_length_experimental="6.00"/>
            <lane id="4_1_2" queueing_time="5.00" queueing_length="6.00" queueing_length_experimental="6.00"/>
            <lane id="4_1_3" queueing_time="13.50" queueing_length="6.00" queueing_length_experimental="6.00"/>
            <lane id="5_1_1" queueing_time="5.00" queueing_length="6.00" queueing_length_experimental="6.00"/>
        </lanes>
    </data>
    <data timestep="48.00">
        <lanes>
            <lane id="2_1_1" queueing_time="27.00" queueing_length="13.00" queueing_length_experimental="13.00"/>
            <lane id="2_1_2" queueing_time="19.00" queueing_length="13.00" queueing_length_experimental="13.00"/>
            <lane id="4_1_1" queueing_time="9.50" queueing_length="6.00" queueing_length_experimental="6.00"/>
            <lane id="4_1_2" queueing_time="5.50" queueing_length="6.00" queueing_length_experimental="6.00"/>
            <lane id="4_1_3" queueing_time="14.00" queueing_length="6.00" queueing_length_experimental="6.00"/>
            <lane id="5_1_1" queueing_time="5.50" queueing_length="6.00" queueing_length_experimental="6.00"/>
        </lanes>
    </data>
    <data timestep="48.50">
        <lanes>
            <lane id="2_1_1" queueing_time="27.50" queueing_length="13.00" queueing_length_experimental="13.00"/>
            <lane id="2_1_2" queueing_time="19.50" queueing_length="13.00" queueing_length_experimental="13.00"/>
            <lane id="4_1_1" queueing_time="10.00" queueing_length="6.00" queueing_length_experimental="6.00"/>
            <lane id="4_1_2" queueing_time="6.00" queueing_length="6.00" queueing_length_experimental="6.00"/>
            <lane id="4_1_3" queueing_time="14.50" queueing_length="6.00" queueing_length_experimental="6.00"/>
            <lane id="5_1_1" queueing_time="6.00" queueing_length="6.00" queueing_length_experimental="6.00"/>
        </lanes>
    </data>
    <data timestep="49.00">
        <lanes>
            <lane id="2_1_1" queueing_time="28.00" queueing_length="13.00" queueing_length_experimental="13.00"/>
            <lane id="2_1_2" queueing_time="20.00" queueing_length="13.00" queueing_length_experimental="13.00"/>
            <lane id="4_1_1" queueing_time="10.50" queueing_length="6.00" queueing_length_experimental="6.00"/>
            <lane id="4_1_2" queueing_time="6.50" queueing_length="6.00" queueing_length_experimental="6.00"/>
            <lane id="4_1_3" queueing_time="15.00" queueing_length="6.00" queueing_length_experimental="6.00"/>
            <lane id="5_1_1" queueing_time="6.50" queueing_length="6.00" queueing_length_experimental="6.00"/>
        </lanes>
    </data>
    <data timestep="49.50">
        <lanes>
            <lane id="2_1_1" queueing_time="28.50" queueing_length="13.00" queueing_length_experimental="13.00"/>
            <lane id="2_1_2" queueing_time="20.50" queueing_length="13.00" queueing_length_experimental="13.00"/>
            <lane id="4_1_1" queueing_time="11.00" queueing_length="6.00" queueing_length_experimental="6.00"/>
            <lane id="4_1_2" queueing_time="7.00" queueing_length="6.00" queueing_length_experimental="6.00"/>
            <lane id="4_1_3" queueing_time="15.50" queueing_length="6.00" queueing_length_experimental="6.00"/>
            <lane id="5_1_1" queueing_time="7.00" queueing_length="6.00" queueing_length_experimental="6.00"/>
        </lanes>
    </data>
    <data timestep="50.00">
        <lanes>
            <lane id="2_1_1" queueing_time="20.50" queueing_length="13.00" queueing_length_experimental="13.00"/>
            <lane id="2_1_2" queueing_time="15.50" queueing_length="13.00" queueing_length_experimental="13.00"/>
            <lane id="4_1_1" queueing_time="0.00" queueing_length="0.00" queueing_length_experimental="5.62"/>
            <lane id="4_1_2" queueing_time="0.00" queueing_length="0.00" queueing_length_experimental="5.47"/>
            <lane id="4_1_3" queueing_time="16.00" queueing_length="6.00" queueing_length_experimental="6.00"/>
            <lane id="5_1_1" queueing_time="7.50" queueing_length="6.00" queueing_length_experimental="6.00"/>
        </lanes>
    </data>
    <data timestep="50.50">
        <lanes>