<?xml version="1.0" encoding="UTF-8"?>

<!-- generated on 2025-04-27 21:13:16 by Eclipse SUMO GUI Version 1.22.0
<sumoConfiguration xmlns:xsi="http://www.w3.org/2001/XMLSchema-instance" xsi:noNamespaceSchemaLocation="http://sumo.dlr.de/xsd/sumoConfiguration.xsd">

    <input>
        <net-file value="/home/naderian/Desktop/Shakiba/MMSVCC/environment/network_model/single_intersection_bike.net.xml"/>
        <route-files value="/home/naderian/Desktop/Shakiba/MMSVCC/environment/network_model/single_intersection.rou.xml"/>
        <additional-files value="/home/naderian/Desktop/Shakiba/MMSVCC/environment/network_model/single_intersection_Concurrent.add.xml"/>
    </input>

    <output>
        <queue-output value="/home/naderian/Desktop/Shakiba/MMSVCC/environment/simulation_data/single_intersection/queues_multi_scale_symmetric_pene_100.xml"/>
        <tripinfo-output value="/home/naderian/Desktop/Shakiba/MMSVCC/environment/simulation_data/single_intersection/tripinfo_multi_scale_symmetric_pene_100.xml"/>
    </output>

    <time>
        <begin value="0"/>
        <step-length value="0.5"/>
    </time>

    <processing>
        <waiting-time-memory value="1000"/>
    </processing>

    <report>
        <verbose value="true"/>
        <no-step-log value="true"/>
    </report>

    <traci_server>
        <remote-port value="58881"/>
    </traci_server>

    <gui_only>
        <start value="true"/>
    </gui_only>

</sumoConfiguration>
-->

<queue-export xmlns:xsi="http://www.w3.org/2001/XMLSchema-instance" xsi:noNamespaceSchemaLocation="http://sumo.dlr.de/xsd/queue_file.xsd">
    <data timestep="0.00">
        <lanes/>
    </data>
    <data timestep="0.50">
        <lanes/>
    </data>
    <data timestep="1.00">
        <lanes/>
    </data>
    <data timestep="1.50">
        <lanes/>
    </data>
    <data timestep="2.00">
        <lanes/>
    </data>
    <data timestep="2.50">
        <lanes/>
    </data>
    <data timestep="3.00">
        <lanes/>
    </data>
    <data timestep="3.50">
        <lanes/>
    </data>
    <data timestep="4.00">
        <lanes/>
    </data>
    <data timestep="4.50">
        <lanes/>
    </data>
    <data timestep="5.00">
        <lanes/>
    </data>
    <data timestep="5.50">
        <lanes/>
    </data>
    <data timestep="6.00">
        <lanes/>
    </data>
    <data timestep="6.50">
        <lanes/>
    </data>
    <data timestep="7.00">
        <lanes/>
    </data>
</queue-export>
