<?xml version="1.0" encoding="UTF-8"?>

<!-- generated on 2025-06-18 20:23:19 by Eclipse SUMO GUI Version 1.22.0
<sumoConfiguration xmlns:xsi="http://www.w3.org/2001/XMLSchema-instance" xsi:noNamespaceSchemaLocation="http://sumo.dlr.de/xsd/sumoConfiguration.xsd">

    <input>
        <net-file value="/home/naderian/Desktop/Shakiba/MMSVCC/environment/network_model/single_intersection_pedestrian_X.net.xml"/>
        <route-files value="/home/naderian/Desktop/Shakiba/MMSVCC/environment/network_model/single_intersection.rou.xml"/>
        <additional-files value="/home/naderian/Desktop/Shakiba/MMSVCC/environment/network_model/single_intersection_Concurrent.add.xml"/>
    </input>

    <output>
        <queue-output value="/home/naderian/Desktop/Shakiba/MMSVCC/environment/simulation_data/single_intersection/queues_multi_scale_asymmetric_pene_100.xml"/>
        <tripinfo-output value="/home/naderian/Desktop/Shakiba/MMSVCC/environment/simulation_data/single_intersection/tripinfo_multi_scale_asymmetric_pene_100.xml"/>
    </output>

    <time>
        <begin value="0"/>
        <step-length value="0.5"/>
    </time>

    <processing>
        <waiting-time-memory value="1000"/>
    </processing>

    <report>
        <verbose value="true"/>
        <no-step-log value="true"/>
    </report>

    <traci_server>
        <remote-port value="39497"/>
    </traci_server>

    <gui_only>
        <start value="true"/>
    </gui_only>

</sumoConfiguration>
-->

<tripinfos xmlns:xsi="http://www.w3.org/2001/XMLSchema-instance" xsi:noNamespaceSchemaLocation="http://sumo.dlr.de/xsd/tripinfo_file.xsd">
    <tripinfo id="SN_0" depart="0.00" departLane="3_1_2" departPos="5.10" departSpeed="0.00" departDelay="0.00" arrival="35.00" arrivalLane="1_5_1" arrivalPos="186.40" arrivalSpeed="13.00" duration="35.00" routeLength="395.15" waitingTime="0.00" waitingCount="0" stopTime="0.00" timeLoss="4.21" rerouteNo="0" devices="tripinfo_SN_0" vType="cars" speedFactor="1.02" vaporized=""/>
    <tripinfo id="NS_1" depart="1.00" departLane="5_1_2" departPos="5.10" departSpeed="0.00" departDelay="0.00" arrival="37.00" arrivalLane="1_3_1" arrivalPos="186.40" arrivalSpeed="13.00" duration="36.00" routeLength="395.15" waitingTime="0.00" waitingCount="0" stopTime="0.00" timeLoss="5.41" rerouteNo="0" devices="tripinfo_NS_1" vType="cars" speedFactor="1.01" vaporized=""/>
    <tripinfo id="SN_2" depart="5.00" departLane="3_1_2" departPos="5.10" departSpeed="0.00" departDelay="0.00" arrival="40.50" arrivalLane="1_5_1" arrivalPos="186.40" arrivalSpeed="13.00" duration="35.50" routeLength="395.15" waitingTime="0.00" waitingCount="0" stopTime="0.00" timeLoss="4.90" rerouteNo="0" devices="tripinfo_SN_2" vType="cars" speedFactor="1.05" vaporized=""/>
    <tripinfo id="WE_0" depart="1.00" departLane="2_1_2" departPos="5.10" departSpeed="0.00" departDelay="0.00" arrival="53.00" arrivalLane="1_4_1" arrivalPos="186.40" arrivalSpeed="13.00" duration="52.00" routeLength="395.15" waitingTime="12.00" waitingCount="2" stopTime="0.00" timeLoss="21.55" rerouteNo="0" devices="tripinfo_WE_0" vType="cars" speedFactor="1.12" vaporized=""/>
    <tripinfo id="WE_1" depart="10.00" departLane="2_1_2" departPos="5.10" departSpeed="0.00" departDelay="0.00" arrival="53.00" arrivalLane="1_4_2" arrivalPos="186.40" arrivalSpeed="13.00" duration="43.00" routeLength="395.15" waitingTime="4.50" waitingCount="1" stopTime="0.00" timeLoss="12.55" rerouteNo="0" devices="tripinfo_WE_1" vType="cars" speedFactor="0.94" vaporized=""/>
    <tripinfo id="WS_3" depart="7.00" departLane="2_1_1" departPos="5.10" departSpeed="0.00" departDelay="0.00" arrival="54.00" arrivalLane="1_3_1" arrivalPos="186.40" arrivalSpeed="13.00" duration="47.00" routeLength="379.43" waitingTime="2.00" waitingCount="1" stopTime="0.00" timeLoss="16.85" rerouteNo="0" devices="tripinfo_WS_3" vType="cars" speedFactor="1.01" vaporized=""/>
    <tripinfo id="WE_2" depart="12.50" departLane="2_1_2" departPos="5.10" departSpeed="0.00" departDelay="0.50" arrival="54.50" arrivalLane="1_4_1" arrivalPos="186.40" arrivalSpeed="13.00" duration="42.00" routeLength="395.15" waitingTime="0.00" waitingCount="0" stopTime="0.00" timeLoss="11.59" rerouteNo="0" devices="tripinfo_WE_2" vType="cars" speedFactor="0.91" vaporized=""/>
    <tripinfo id="WE_3" depart="19.00" departLane="2_1_2" departPos="5.10" departSpeed="0.00" departDelay="0.00" arrival="59.00" arrivalLane="1_4_2" arrivalPos="186.40" arrivalSpeed="11.00" duration="40.00" routeLength="395.15" waitingTime="0.00" waitingCount="0" stopTime="0.00" timeLoss="9.42" rerouteNo="0" devices="tripinfo_WE_3" vType="cars" speedFactor="0.93" vaporized=""/>
    <tripinfo id="WS_5" depart="16.00" departLane="2_1_1" departPos="5.10" departSpeed="0.00" departDelay="0.00" arrival="62.00" arrivalLane="1_3_1" arrivalPos="186.40" arrivalSpeed="9.07" duration="46.00" routeLength="379.43" waitingTime="0.00" waitingCount="0" stopTime="0.00" timeLoss="15.83" rerouteNo="0" devices="tripinfo_WS_5" vType="cars" speedFactor="0.89" vaporized=""/>
    <tripinfo id="WE_4" depart="26.00" departLane="2_1_2" departPos="5.10" departSpeed="0.00" departDelay="0.00" arrival="64.00" arrivalLane="1_4_1" arrivalPos="186.40" arrivalSpeed="11.00" duration="38.00" routeLength="395.15" waitingTime="0.00" waitingCount="0" stopTime="0.00" timeLoss="7.49" rerouteNo="0" devices="tripinfo_WE_4" vType="cars" speedFactor="1.01" vaporized=""/>
    <tripinfo id="NS_7" depart="22.00" departLane="5_1_2" departPos="5.10" departSpeed="0.00" departDelay="0.00" arrival="73.00" arrivalLane="1_3_1" arrivalPos="186.40" arrivalSpeed="13.00" duration="51.00" routeLength="395.15" waitingTime="8.50" waitingCount="2" stopTime="0.00" timeLoss="20.55" rerouteNo="0" devices="tripinfo_NS_7" vType="cars" speedFactor="0.76" vaporized=""/>
    <tripinfo id="SN_8" depart="25.00" departLane="3_1_2" departPos="5.10" departSpeed="0.00" departDelay="0.00" arrival="73.00" arrivalLane="1_5_1" arrivalPos="186.40" arrivalSpeed="13.00" duration="48.00" routeLength="395.15" waitingTime="7.00" waitingCount="2" stopTime="0.00" timeLoss="17.55" rerouteNo="0" devices="tripinfo_SN_8" vType="cars" speedFactor="0.96" vaporized=""/>
    <tripinfo id="SN_10" depart="30.50" departLane="3_1_2" departPos="5.10" departSpeed="0.00" departDelay="1.50" arrival="73.00" arrivalLane="1_5_2" arrivalPos="186.40" arrivalSpeed="13.00" duration="42.50" routeLength="395.15" waitingTime="4.00" waitingCount="1" stopTime="0.00" timeLoss="12.05" rerouteNo="0" devices="tripinfo_SN_10" vType="cars" speedFactor="0.83" vaporized=""/>
    <tripinfo id="NS_12" depart="34.00" departLane="5_1_2" departPos="5.10" departSpeed="0.00" departDelay="0.00" arrival="73.50" arrivalLane="1_3_2" arrivalPos="186.40" arrivalSpeed="13.00" duration="39.50" routeLength="395.15" waitingTime="0.00" waitingCount="0" stopTime="0.00" timeLoss="8.75" rerouteNo="0" devices="tripinfo_NS_12" vType="cars" speedFactor="0.85" vaporized=""/>
    <tripinfo id="SN_9" depart="27.50" departLane="3_1_2" departPos="5.10" departSpeed="0.00" departDelay="1.50" arrival="74.50" arrivalLane="1_5_1" arrivalPos="186.40" arrivalSpeed="13.00" duration="47.00" routeLength="395.15" waitingTime="2.50" waitingCount="5" stopTime="0.00" timeLoss="16.59" rerouteNo="0" devices="tripinfo_SN_9" vType="cars" speedFactor="0.89" vaporized=""/>
    <tripinfo id="SN_11" depart="33.00" departLane="3_1_2" departPos="5.10" departSpeed="0.00" departDelay="3.00" arrival="74.50" arrivalLane="1_5_2" arrivalPos="186.40" arrivalSpeed="13.00" duration="41.50" routeLength="395.15" waitingTime="0.00" waitingCount="0" stopTime="0.00" timeLoss="11.09" rerouteNo="0" devices="tripinfo_SN_11" vType="cars" speedFactor="1.06" vaporized=""/>
    <tripinfo id="SE_13" depart="36.00" departLane="3_1_1" departPos="5.10" departSpeed="0.00" departDelay="0.00" arrival="78.50" arrivalLane="1_4_1" arrivalPos="186.40" arrivalSpeed="10.80" duration="42.50" routeLength="379.42" waitingTime="0.00" waitingCount="0" stopTime="0.00" timeLoss="12.63" rerouteNo="0" devices="tripinfo_SE_13" vType="cars" speedFactor="1.12" vaporized=""/>
    <tripinfo id="SN_14" depart="38.00" departLane="3_1_2" departPos="5.10" departSpeed="0.00" departDelay="0.00" arrival="79.00" arrivalLane="1_5_2" arrivalPos="186.40" arrivalSpeed="11.00" duration="41.00" routeLength="395.15" waitingTime="0.00" waitingCount="0" stopTime="0.00" timeLoss="10.40" rerouteNo="0" devices="tripinfo_SN_14" vType="cars" speedFactor="0.96" vaporized=""/>
    <tripinfo id="SE_15" depart="39.00" departLane="3_1_1" departPos="5.10" departSpeed="0.00" departDelay="0.00" arrival="80.00" arrivalLane="1_4_1" arrivalPos="186.40" arrivalSpeed="13.00" duration="41.00" routeLength="379.42" waitingTime="0.00" waitingCount="0" stopTime="0.00" timeLoss="10.86" rerouteNo="0" devices="tripinfo_SE_15" vType="cars" speedFactor="0.92" vaporized=""/>
    <tripinfo id="SN_16" depart="40.50" departLane="3_1_2" departPos="5.10" departSpeed="0.00" departDelay="0.50" arrival="80.50" arrivalLane="1_5_2" arrivalPos="186.40" arrivalSpeed="13.00" duration="40.00" routeLength="395.15" waitingTime="0.00" waitingCount="0" stopTime="0.00" timeLoss="9.30" rerouteNo="0" devices="tripinfo_SN_16" vType="cars" speedFactor="0.84" vaporized=""/>
    <tripinfo id="WE_5" depart="29.00" departLane="2_1_2" departPos="5.10" departSpeed="0.00" departDelay="0.00" arrival="93.00" arrivalLane="1_4_1" arrivalPos="186.40" arrivalSpeed="13.00" duration="64.00" routeLength="395.15" waitingTime="15.00" waitingCount="2" stopTime="0.00" timeLoss="33.55" rerouteNo="0" devices="tripinfo_WE_5" vType="cars" speedFactor="1.01" vaporized=""/>
    <tripinfo id="WE_6" depart="32.50" departLane="2_1_2" departPos="5.10" departSpeed="0.00" departDelay="2.50" arrival="93.00" arrivalLane="1_4_2" arrivalPos="186.40" arrivalSpeed="13.00" duration="60.50" routeLength="395.15" waitingTime="17.00" waitingCount="1" stopTime="0.00" timeLoss="30.05" rerouteNo="0" devices="tripinfo_WE_6" vType="cars" speedFactor="0.95" vaporized=""/>
    <tripinfo id="EW_0" depart="32.00" departLane="4_1_2" departPos="5.10" departSpeed="0.00" departDelay="0.00" arrival="93.00" arrivalLane="1_2_1" arrivalPos="186.40" arrivalSpeed="13.00" duration="61.00" routeLength="395.15" waitingTime="17.50" waitingCount="2" stopTime="0.00" timeLoss="30.55" rerouteNo="0" devices="tripinfo_EW_0" vType="cars" speedFactor="0.93" vaporized=""/>
    <tripinfo id="EW_1" depart="37.00" departLane="4_1_2" departPos="5.10" departSpeed="0.00" departDelay="0.00" arrival="93.00" arrivalLane="1_2_2" arrivalPos="186.40" arrivalSpeed="13.00" duration="56.00" routeLength="395.15" waitingTime="9.50" waitingCount="1" stopTime="0.00" timeLoss="25.55" rerouteNo="0" devices="tripinfo_EW_1" vType="cars" speedFactor="1.10" vaporized=""/>
    <tripinfo id="EW_2" depart="42.00" departLane="4_1_2" departPos="5.10" departSpeed="0.00" departDelay="0.00" arrival="94.50" arrivalLane="1_2_1" arrivalPos="186.40" arrivalSpeed="13.00" duration="52.50" routeLength="395.15" waitingTime="7.50" waitingCount="5" stopTime="0.00" timeLoss="22.09" rerouteNo="0" devices="tripinfo_EW_2" vType="cars" speedFactor="1.02" vaporized=""/>
    <tripinfo id="EW_3" depart="46.00" departLane="4_1_2" departPos="5.10" departSpeed="0.00" departDelay="0.00" arrival="94.50" arrivalLane="1_2_2" arrivalPos="186.40" arrivalSpeed="13.00" duration="48.50" routeLength="395.15" waitingTime="1.50" waitingCount="1" stopTime="0.00" timeLoss="18.09" rerouteNo="0" devices="tripinfo_EW_3" vType="cars" speedFactor="1.18" vaporized=""/>
    <tripinfo id="WE_7" depart="50.00" departLane="2_1_2" departPos="5.10" departSpeed="0.00" departDelay="0.00" arrival="94.50" arrivalLane="1_4_1" arrivalPos="186.40" arrivalSpeed="13.00" duration="44.50" routeLength="395.15" waitingTime="0.00" waitingCount="0" stopTime="0.00" timeLoss="14.09" rerouteNo="0" devices="tripinfo_WE_7" vType="cars" speedFactor="1.01" vaporized=""/>
    <tripinfo id="EW_4" depart="62.00" departLane="4_1_2" departPos="5.10" departSpeed="0.00" departDelay="0.00" arrival="98.00" arrivalLane="1_2_1" arrivalPos="186.40" arrivalSpeed="13.00" duration="36.00" routeLength="395.15" waitingTime="0.00" waitingCount="0" stopTime="0.00" timeLoss="5.35" rerouteNo="0" devices="tripinfo_EW_4" vType="cars" speedFactor="0.95" vaporized=""/>
    <tripinfo id="SN_21" depart="75.00" departLane="3_1_2" departPos="5.10" departSpeed="0.00" departDelay="0.00" arrival="112.00" arrivalLane="1_5_2" arrivalPos="186.40" arrivalSpeed="13.00" duration="37.00" routeLength="395.15" waitingTime="0.00" waitingCount="0" stopTime="0.00" timeLoss="6.38" rerouteNo="0" devices="tripinfo_SN_21" vType="cars" speedFactor="1.05" vaporized=""/>
    <tripinfo id="NS_19" depart="66.00" departLane="5_1_2" departPos="5.10" departSpeed="0.00" departDelay="0.00" arrival="113.00" arrivalLane="1_3_2" arrivalPos="186.40" arrivalSpeed="13.00" duration="47.00" routeLength="395.15" waitingTime="6.50" waitingCount="1" stopTime="0.00" timeLoss="16.55" rerouteNo="0" devices="tripinfo_NS_19" vType="cars" speedFactor="0.93" vaporized=""/>
    <tripinfo id="SN_18" depart="60.00" departLane="3_1_2" departPos="5.10" departSpeed="0.00" departDelay="0.00" arrival="113.50" arrivalLane="1_5_1" arrivalPos="186.40" arrivalSpeed="13.00" duration="53.50" routeLength="395.15" waitingTime="12.50" waitingCount="2" stopTime="0.00" timeLoss="23.05" rerouteNo="0" devices="tripinfo_SN_18" vType="cars" speedFactor="0.98" vaporized=""/>
    <tripinfo id="SN_23" depart="83.00" departLane="3_1_2" departPos="5.10" departSpeed="0.00" departDelay="0.00" arrival="118.50" arrivalLane="1_5_1" arrivalPos="186.40" arrivalSpeed="13.00" duration="35.50" routeLength="395.15" waitingTime="0.00" waitingCount="0" stopTime="0.00" timeLoss="4.90" rerouteNo="0" devices="tripinfo_SN_23" vType="cars" speedFactor="1.11" vaporized=""/>
    <tripinfo id="NS_24" depart="84.00" departLane="5_1_2" departPos="5.10" departSpeed="0.00" departDelay="0.00" arrival="119.00" arrivalLane="1_3_1" arrivalPos="186.40" arrivalSpeed="13.00" duration="35.00" routeLength="395.15" waitingTime="0.00" waitingCount="0" stopTime="0.00" timeLoss="4.37" rerouteNo="0" devices="tripinfo_NS_24" vType="cars" speedFactor="1.09" vaporized=""/>
    <tripinfo id="NW_17" depart="53.00" departLane="5_1_1" departPos="5.10" departSpeed="0.00" departDelay="0.00" arrival="130.50" arrivalLane="1_2_1" arrivalPos="186.40" arrivalSpeed="13.00" duration="77.50" routeLength="379.43" waitingTime="32.00" waitingCount="3" stopTime="0.00" timeLoss="46.84" rerouteNo="0" devices="tripinfo_NW_17" vType="cars" speedFactor="0.79" vaporized=""/>
    <tripinfo id="EW_5" depart="82.00" departLane="4_1_2" departPos="5.10" departSpeed="0.00" departDelay="0.00" arrival="133.00" arrivalLane="1_2_1" arrivalPos="186.40" arrivalSpeed="13.00" duration="51.00" routeLength="395.15" waitingTime="10.00" waitingCount="2" stopTime="0.00" timeLoss="20.55" rerouteNo="0" devices="tripinfo_EW_5" vType="cars" speedFactor="1.04" vaporized=""/>
    <tripinfo id="EW_6" depart="91.00" departLane="4_1_2" departPos="5.10" departSpeed="0.00" departDelay="0.00" arrival="133.50" arrivalLane="1_2_2" arrivalPos="186.40" arrivalSpeed="13.00" duration="42.50" routeLength="395.15" waitingTime="0.00" waitingCount="0" stopTime="0.00" timeLoss="11.99" rerouteNo="0" devices="tripinfo_EW_6" vType="cars" speedFactor="1.00" vaporized=""/>
    <tripinfo id="WE_8" depart="78.00" departLane="2_1_2" departPos="5.10" departSpeed="0.00" departDelay="0.00" arrival="134.00" arrivalLane="1_4_1" arrivalPos="186.40" arrivalSpeed="13.00" duration="56.00" routeLength="395.15" waitingTime="12.00" waitingCount="2" stopTime="0.00" timeLoss="25.55" rerouteNo="0" devices="tripinfo_WE_8" vType="cars" speedFactor="1.01" vaporized=""/>
    <tripinfo id="WE_9" depart="83.00" departLane="2_1_2" departPos="5.10" departSpeed="0.00" departDelay="0.00" arrival="135.50" arrivalLane="1_4_1" arrivalPos="186.40" arrivalSpeed="13.00" duration="52.50" routeLength="395.15" waitingTime="8.50" waitingCount="6" stopTime="0.00" timeLoss="21.89" rerouteNo="0" devices="tripinfo_WE_9" vType="cars" speedFactor="1.08" vaporized=""/>
    <tripinfo id="EW_7" depart="96.00" departLane="4_1_2" departPos="5.10" departSpeed="0.00" departDelay="0.00" arrival="135.50" arrivalLane="1_2_1" arrivalPos="186.40" arrivalSpeed="13.00" duration="39.50" routeLength="395.15" waitingTime="0.00" waitingCount="0" stopTime="0.00" timeLoss="8.64" rerouteNo="0" devices="tripinfo_EW_7" vType="cars" speedFactor="0.98" vaporized=""/>
    <tripinfo id="WE_11" depart="88.50" departLane="2_1_2" departPos="5.10" departSpeed="0.00" departDelay="3.50" arrival="137.00" arrivalLane="1_4_2" arrivalPos="186.40" arrivalSpeed="13.00" duration="48.50" routeLength="395.15" waitingTime="3.00" waitingCount="5" stopTime="0.00" timeLoss="18.03" rerouteNo="0" devices="tripinfo_WE_11" vType="cars" speedFactor="1.05" vaporized=""/>
    <tripinfo id="EW_8" depart="98.50" departLane="4_1_2" departPos="5.10" departSpeed="0.00" departDelay="0.50" arrival="137.00" arrivalLane="1_2_2" arrivalPos="186.40" arrivalSpeed="13.00" duration="38.50" routeLength="395.15" waitingTime="0.00" waitingCount="0" stopTime="0.00" timeLoss="8.01" rerouteNo="0" devices="tripinfo_EW_8" vType="cars" speedFactor="0.96" vaporized=""/>
    <tripinfo id="WE_10" depart="85.50" departLane="2_1_2" departPos="5.10" departSpeed="0.00" departDelay="1.50" arrival="139.00" arrivalLane="1_4_2" arrivalPos="186.40" arrivalSpeed="13.00" duration="53.50" routeLength="395.15" waitingTime="7.00" waitingCount="2" stopTime="0.00" timeLoss="22.87" rerouteNo="0" devices="tripinfo_WE_10" vType="cars" speedFactor="1.13" vaporized=""/>
    <tripinfo id="WE_12" depart="98.00" departLane="2_1_2" departPos="5.10" departSpeed="0.00" departDelay="0.00" arrival="140.50" arrivalLane="1_4_2" arrivalPos="186.40" arrivalSpeed="13.00" duration="42.50" routeLength="395.15" waitingTime="0.00" waitingCount="0" stopTime="0.00" timeLoss="11.96" rerouteNo="0" devices="tripinfo_WE_12" vType="cars" speedFactor="0.83" vaporized=""/>
    <tripinfo id="EN_26" depart="99.00" departLane="4_1_1" departPos="5.10" departSpeed="0.00" departDelay="0.00" arrival="151.50" arrivalLane="1_5_1" arrivalPos="186.40" arrivalSpeed="13.00" duration="52.50" routeLength="379.42" waitingTime="14.50" waitingCount="1" stopTime="0.00" timeLoss="22.20" rerouteNo="0" devices="tripinfo_EN_26" vType="cars" speedFactor="0.97" vaporized=""/>
    <tripinfo id="SE_27" depart="101.00" departLane="3_1_1" departPos="5.10" departSpeed="0.00" departDelay="0.00" arrival="152.50" arrivalLane="1_4_1" arrivalPos="186.40" arrivalSpeed="13.00" duration="51.50" routeLength="379.42" waitingTime="11.00" waitingCount="2" stopTime="0.00" timeLoss="21.49" rerouteNo="0" devices="tripinfo_SE_27" vType="cars" speedFactor="1.14" vaporized=""/>
    <tripinfo id="EW_10" depart="112.00" departLane="4_1_2" departPos="5.10" departSpeed="0.00" departDelay="0.00" arrival="153.00" arrivalLane="1_2_2" arrivalPos="186.40" arrivalSpeed="13.00" duration="41.00" routeLength="395.15" waitingTime="0.00" waitingCount="0" stopTime="0.00" timeLoss="10.40" rerouteNo="0" devices="tripinfo_EW_10" vType="cars" speedFactor="1.12" vaporized=""/>
    <tripinfo id="WS_22" depart="79.00" departLane="2_1_1" departPos="5.10" departSpeed="0.00" departDelay="0.00" arrival="153.50" arrivalLane="1_3_1" arrivalPos="186.40" arrivalSpeed="13.00" duration="74.50" routeLength="379.43" waitingTime="29.00" waitingCount="5" stopTime="0.00" timeLoss="44.25" rerouteNo="0" devices="tripinfo_WS_22" vType="cars" speedFactor="1.02" vaporized=""/>
    <tripinfo id="ES_4" depart="14.00" departLane="4_1_3" departPos="5.10" departSpeed="0.00" departDelay="0.00" arrival="154.00" arrivalLane="1_3_2" arrivalPos="186.40" arrivalSpeed="13.00" duration="140.00" routeLength="392.22" waitingTime="98.00" waitingCount="1" stopTime="0.00" timeLoss="109.34" rerouteNo="0" devices="tripinfo_ES_4" vType="cars" speedFactor="1.30" vaporized=""/>
    <tripinfo id="EW_9" depart="108.00" departLane="4_1_2" departPos="5.10" departSpeed="0.00" departDelay="0.00" arrival="154.00" arrivalLane="1_2_1" arrivalPos="186.40" arrivalSpeed="13.00" duration="46.00" routeLength="395.15" waitingTime="1.00" waitingCount="1" stopTime="0.00" timeLoss="15.26" rerouteNo="0" devices="tripinfo_EW_9" vType="cars" speedFactor="0.91" vaporized=""/>
    <tripinfo id="EW_11" depart="114.50" departLane="4_1_2" departPos="5.10" departSpeed="0.00" departDelay="1.50" arrival="154.50" arrivalLane="1_2_2" arrivalPos="186.40" arrivalSpeed="13.00" duration="40.00" routeLength="395.15" waitingTime="0.00" waitingCount="0" stopTime="0.00" timeLoss="9.44" rerouteNo="0" devices="tripinfo_EW_11" vType="cars" speedFactor="0.98" vaporized=""/>
    <tripinfo id="EN_31" depart="117.00" departLane="4_1_1" departPos="5.10" departSpeed="0.00" departDelay="0.00" arrival="156.00" arrivalLane="1_5_1" arrivalPos="186.40" arrivalSpeed="13.00" duration="39.00" routeLength="379.42" waitingTime="0.00" waitingCount="0" stopTime="0.00" timeLoss="8.96" rerouteNo="0" devices="tripinfo_EN_31" vType="cars" speedFactor="0.86" vaporized=""/>
    <tripinfo id="EW_12" depart="119.00" departLane="4_1_2" departPos="5.10" departSpeed="0.00" departDelay="0.00" arrival="157.00" arrivalLane="1_2_2" arrivalPos="186.40" arrivalSpeed="13.00" duration="38.00" routeLength="395.15" waitingTime="0.00" waitingCount="0" stopTime="0.00" timeLoss="7.14" rerouteNo="0" devices="tripinfo_EW_12" vType="cars" speedFactor="0.99" vaporized=""/>
    <tripinfo id="NS_25" depart="92.00" departLane="5_1_2" departPos="5.10" departSpeed="0.00" departDelay="0.00" arrival="168.00" arrivalLane="1_3_1" arrivalPos="186.40" arrivalSpeed="13.00" duration="76.00" routeLength="395.15" waitingTime="32.50" waitingCount="2" stopTime="0.00" timeLoss="45.55" rerouteNo="0" devices="tripinfo_NS_25" vType="cars" speedFactor="0.88" vaporized=""/>
    <tripinfo id="SN_28" depart="105.00" departLane="3_1_2" departPos="5.10" departSpeed="0.00" departDelay="0.00" arrival="168.00" arrivalLane="1_5_2" arrivalPos="186.40" arrivalSpeed="13.00" duration="63.00" routeLength="395.15" waitingTime="22.00" waitingCount="1" stopTime="0.00" timeLoss="32.55" rerouteNo="0" devices="tripinfo_SN_28" vType="cars" speedFactor="1.25" vaporized=""/>
    <tripinfo id="SN_29" depart="109.00" departLane="3_1_2" departPos="5.10" departSpeed="0.00" departDelay="0.00" arrival="168.00" arrivalLane="1_5_1" arrivalPos="186.40" arrivalSpeed="13.00" duration="59.00" routeLength="395.15" waitingTime="11.00" waitingCount="2" stopTime="0.00" timeLoss="28.55" rerouteNo="0" devices="tripinfo_SN_29" vType="cars" speedFactor="0.99" vaporized=""/>
    <tripinfo id="NS_30" depart="111.00" departLane="5_1_2" departPos="5.10" departSpeed="0.00" departDelay="0.00" arrival="169.50" arrivalLane="1_3_1" arrivalPos="186.40" arrivalSpeed="13.00" duration="58.50" routeLength="395.15" waitingTime="13.00" waitingCount="3" stopTime="0.00" timeLoss="27.90" rerouteNo="0" devices="tripinfo_NS_30" vType="cars" speedFactor="0.95" vaporized=""/>
    <tripinfo id="SN_35" depart="124.00" departLane="3_1_2" departPos="5.10" departSpeed="0.00" departDelay="0.00" arrival="169.50" arrivalLane="1_5_2" arrivalPos="186.40" arrivalSpeed="13.00" duration="45.50" routeLength="395.15" waitingTime="1.00" waitingCount="2" stopTime="0.00" timeLoss="15.09" rerouteNo="0" devices="tripinfo_SN_35" vType="cars" speedFactor="1.14" vaporized=""/>
    <personinfo id="person_NS_w.3" depart="16.50" type="DEFAULT_PEDTYPE" speedFactor="1.23" duration="155.00" waitingTime="0.00" timeLoss="25.07" traveltime="155.00">
        <walk depart="16.50" departPos="100.00" arrival="171.50" arrivalPos="93.20" duration="155.00" routeLength="221.25" timeLoss="25.07" maxSpeed="1.70"/>
    </personinfo>
    <tripinfo id="SN_39" depart="134.00" departLane="3_1_2" departPos="5.10" departSpeed="0.00" departDelay="0.00" arrival="171.50" arrivalLane="1_5_2" arrivalPos="186.40" arrivalSpeed="13.00" duration="37.50" routeLength="395.15" waitingTime="0.00" waitingCount="0" stopTime="0.00" timeLoss="6.73" rerouteNo="0" devices="tripinfo_SN_39" vType="cars" speedFactor="1.10" vaporized=""/>
    <tripinfo id="NS_32" depart="118.00" departLane="5_1_2" departPos="5.10" departSpeed="0.00" departDelay="0.00" arrival="174.00" arrivalLane="1_3_2" arrivalPos="186.40" arrivalSpeed="13.00" duration="56.00" routeLength="395.15" waitingTime="5.50" waitingCount="5" stopTime="0.00" timeLoss="25.23" rerouteNo="0" devices="tripinfo_NS_32" vType="cars" speedFactor="1.12" vaporized=""/>
    <tripinfo id="SN_37" depart="128.00" departLane="3_1_2" departPos="5.10" departSpeed="0.00" departDelay="0.00" arrival="174.00" arrivalLane="1_5_2" arrivalPos="186.40" arrivalSpeed="13.00" duration="46.00" routeLength="395.15" waitingTime="0.00" waitingCount="0" stopTime="0.00" timeLoss="15.24" rerouteNo="0" devices="tripinfo_SN_37" vType="cars" speedFactor="0.89" vaporized=""/>
    <tripinfo id="NS_36" depart="128.00" departLane="5_1_2" departPos="5.10" departSpeed="0.00" departDelay="0.00" arrival="175.00" arrivalLane="1_3_1" arrivalPos="186.40" arrivalSpeed="10.30" duration="47.00" routeLength="395.15" waitingTime="0.00" waitingCount="0" stopTime="0.00" timeLoss="16.61" rerouteNo="0" devices="tripinfo_NS_36" vType="cars" speedFactor="0.95" vaporized=""/>
    <personinfo id="person_WE_s.0" depart="1.50" type="DEFAULT_PEDTYPE" speedFactor="0.98" duration="174.00" waitingTime="0.00" timeLoss="10.71" traveltime="174.00">
        <walk depart="1.50" departPos="100.00" arrival="175.50" arrivalPos="93.20" duration="174.00" routeLength="221.17" timeLoss="10.71" maxSpeed="1.35"/>
    </personinfo>
    <personinfo id="person_NS_w.5" depart="19.50" type="DEFAULT_PEDTYPE" speedFactor="1.12" duration="159.00" waitingTime="0.00" timeLoss="16.71" traveltime="159.00">
        <walk depart="19.50" departPos="100.00" arrival="178.50" arrivalPos="93.20" duration="159.00" routeLength="221.25" timeLoss="16.71" maxSpeed="1.55"/>
    </personinfo>
    <personinfo id="person_SN_e.1" depart="30.50" type="DEFAULT_PEDTYPE" speedFactor="1.14" duration="149.50" waitingTime="0.00" timeLoss="9.70" traveltime="149.50">
        <walk depart="30.50" departPos="100.00" arrival="180.00" arrivalPos="93.20" duration="149.50" routeLength="221.24" timeLoss="9.70" maxSpeed="1.58"/>
    </personinfo>
    <tripinfo id="SE_33" depart="122.00" departLane="3_1_1" departPos="5.10" departSpeed="0.00" departDelay="0.00" arrival="184.00" arrivalLane="1_4_1" arrivalPos="186.40" arrivalSpeed="13.00" duration="62.00" routeLength="379.42" waitingTime="14.50" waitingCount="4" stopTime="0.00" timeLoss="31.57" rerouteNo="0" devices="tripinfo_SE_33" vType="cars" speedFactor="0.98" vaporized=""/>
    <personinfo id="person_NS_w.2" depart="16.50" type="DEFAULT_PEDTYPE" speedFactor="1.03" duration="168.50" waitingTime="0.00" timeLoss="13.92" traveltime="168.50">
        <walk depart="16.50" departPos="100.00" arrival="185.00" arrivalPos="93.20" duration="168.50" routeLength="221.25" timeLoss="13.92" maxSpeed="1.43"/>
    </personinfo>
    <personinfo id="person_SW_diag.0" depart="15.50" type="DEFAULT_PEDTYPE" speedFactor="1.05" duration="171.50" waitingTime="0.00" timeLoss="17.66" traveltime="171.50">
        <walk depart="15.50" departPos="100.00" arrival="187.00" arrivalPos="93.20" duration="171.50" routeLength="223.30" timeLoss="17.66" maxSpeed="1.45"/>
    </personinfo>
    <tripinfo id="NS_41" depart="145.00" departLane="5_1_2" departPos="5.10" departSpeed="0.00" departDelay="0.00" arrival="188.50" arrivalLane="1_3_2" arrivalPos="186.40" arrivalSpeed="13.00" duration="43.50" routeLength="395.15" waitingTime="0.00" waitingCount="0" stopTime="0.00" timeLoss="12.78" rerouteNo="0" devices="tripinfo_NS_41" vType="cars" speedFactor="0.92" vaporized=""/>
    <tripinfo id="NE_6" depart="20.00" departLane="5_1_3" departPos="5.10" departSpeed="0.00" departDelay="0.00" arrival="189.00" arrivalLane="1_4_2" arrivalPos="186.40" arrivalSpeed="13.00" duration="169.00" routeLength="392.22" waitingTime="127.00" waitingCount="1" stopTime="0.00" timeLoss="137.80" rerouteNo="0" devices="tripinfo_NE_6" vType="cars" speedFactor="0.95" vaporized=""/>
    <personinfo id="person_NE_diag.0" depart="2.50" type="DEFAULT_PEDTYPE" speedFactor="0.96" duration="187.00" waitingTime="0.00" timeLoss="18.91" traveltime="187.00">
        <walk depart="2.50" departPos="100.00" arrival="189.50" arrivalPos="93.20" duration="187.00" routeLength="223.30" timeLoss="18.91" maxSpeed="1.33"/>
    </personinfo>
    <tripinfo id="NS_43" depart="150.00" departLane="5_1_2" departPos="5.10" departSpeed="0.00" departDelay="0.00" arrival="190.00" arrivalLane="1_3_2" arrivalPos="186.40" arrivalSpeed="13.00" duration="40.00" routeLength="395.15" waitingTime="0.00" waitingCount="0" stopTime="0.00" timeLoss="9.31" rerouteNo="0" devices="tripinfo_NS_43" vType="cars" speedFactor="0.99" vaporized=""/>
    <personinfo id="person_NS_w.0" depart="3.50" type="DEFAULT_PEDTYPE" speedFactor="0.96" duration="187.50" waitingTime="0.00" timeLoss="21.83" traveltime="187.50">
        <walk depart="3.50" departPos="100.00" arrival="191.00" arrivalPos="93.20" duration="187.50" routeLength="221.25" timeLoss="21.83" maxSpeed="1.34"/>
    </personinfo>
    <tripinfo id="NS_45" depart="153.00" departLane="5_1_2" departPos="5.10" departSpeed="0.00" departDelay="2.00" arrival="192.00" arrivalLane="1_3_2" arrivalPos="186.40" arrivalSpeed="13.00" duration="39.00" routeLength="395.15" waitingTime="0.00" waitingCount="0" stopTime="0.00" timeLoss="8.21" rerouteNo="0" devices="tripinfo_NS_45" vType="cars" speedFactor="0.80" vaporized=""/>
    <personinfo id="person_WE_s.2" depart="37.00" type="DEFAULT_PEDTYPE" speedFactor="1.20" duration="155.50" waitingTime="0.00" timeLoss="22.85" traveltime="155.50">