<?xml version="1.0" encoding="UTF-8"?>

<!-- generated on 2025-06-28 16:27:26 by Eclipse SUMO GUI Version 1.22.0
<sumoConfiguration xmlns:xsi="http://www.w3.org/2001/XMLSchema-instance" xsi:noNamespaceSchemaLocation="http://sumo.dlr.de/xsd/sumoConfiguration.xsd">

    <input>
        <net-file value="/home/naderian/Desktop/Shakiba/MMSVCC/environment/network_model/single_intersection_bike.net.xml"/>
        <route-files value="/home/naderian/Desktop/Shakiba/MMSVCC/environment/network_model/single_intersection.rou.xml"/>
        <additional-files value="/home/naderian/Desktop/Shakiba/MMSVCC/environment/network_model/single_intersection.add_actuated.xml"/>
    </input>

    <output>
        <queue-output value="/home/naderian/Desktop/Shakiba/MMSVCC/environment/simulation_data/single_intersection/queues_actuated_pene_100.xml"/>
        <tripinfo-output value="/home/naderian/Desktop/Shakiba/MMSVCC/environment/simulation_data/single_intersection/tripinfo_actuated_pene_100.xml"/>
    </output>

    <time>
        <begin value="0"/>
        <step-length value="0.5"/>
    </time>

    <processing>
        <waiting-time-memory value="1000"/>
    </processing>

    <report>
        <verbose value="true"/>
        <no-step-log value="true"/>
    </report>

    <ssm_device>
        <device.ssm.file value="/home/naderian/Desktop/Shakiba/MMSVCC/environment/simulation_data/single_intersection/SSMinfo_actuated_pene_100.xml"/>
    </ssm_device>

    <traci_server>
        <remote-port value="43693"/>
    </traci_server>

    <gui_only>
        <start value="true"/>
    </gui_only>

</sumoConfiguration>
-->

<tripinfos xmlns:xsi="http://www.w3.org/2001/XMLSchema-instance" xsi:noNamespaceSchemaLocation="http://sumo.dlr.de/xsd/tripinfo_file.xsd">
    <tripinfo id="SN_0" depart="0.00" departLane="3_1_4" departPos="5.10" departSpeed="0.00" departDelay="0.00" arrival="36.50" arrivalLane="1_5_3" arrivalPos="184.90" arrivalSpeed="12.96" duration="36.50" routeLength="395.12" waitingTime="0.00" waitingCount="0" stopTime="0.00" timeLoss="5.63" rerouteNo="0" devices="tripinfo_SN_0 ssm_SN_0" vType="cars" speedFactor="1.02" vaporized=""/>
    <tripinfo id="NS_1" depart="1.00" departLane="5_1_4" departPos="5.10" departSpeed="0.00" departDelay="0.00" arrival="36.50" arrivalLane="1_3_3" arrivalPos="184.90" arrivalSpeed="12.56" duration="35.50" routeLength="395.12" waitingTime="0.00" waitingCount="0" stopTime="0.00" timeLoss="5.00" rerouteNo="0" devices="tripinfo_NS_1 ssm_NS_1" vType="cars" speedFactor="1.01" vaporized=""/>
    <tripinfo id="SN_2" depart="5.00" departLane="3_1_4" departPos="5.10" departSpeed="0.00" departDelay="0.00" arrival="41.00" arrivalLane="1_5_3" arrivalPos="184.90" arrivalSpeed="11.90" duration="36.00" routeLength="395.12" waitingTime="0.00" waitingCount="0" stopTime="0.00" timeLoss="5.31" rerouteNo="0" devices="tripinfo_SN_2 ssm_SN_2" vType="cars" speedFactor="1.05" vaporized=""/>
    <tripinfo id="SE_4" depart="9.00" departLane="3_1_3" departPos="5.10" departSpeed="0.00" departDelay="0.00" arrival="47.00" arrivalLane="1_4_3" arrivalPos="184.90" arrivalSpeed="12.12" duration="38.00" routeLength="378.82" waitingTime="0.00" waitingCount="0" stopTime="0.00" timeLoss="7.85" rerouteNo="0" devices="tripinfo_SE_4 ssm_SE_4" vType="cars" speedFactor="0.94" vaporized=""/>
    <tripinfo id="NS_5" depart="11.00" departLane="5_1_4" departPos="5.10" departSpeed="0.00" departDelay="0.00" arrival="48.50" arrivalLane="1_3_3" arrivalPos="184.90" arrivalSpeed="12.52" duration="37.50" routeLength="395.12" waitingTime="0.00" waitingCount="0" stopTime="0.00" timeLoss="6.81" rerouteNo="0" devices="tripinfo_NS_5 ssm_NS_5" vType="cars" speedFactor="0.91" vaporized=""/>
    <tripinfo id="NS_8" depart="17.00" departLane="5_1_4" departPos="5.10" departSpeed="0.00" departDelay="0.00" arrival="53.00" arrivalLane="1_3_3" arrivalPos="184.90" arrivalSpeed="11.61" duration="36.00" routeLength="395.12" waitingTime="0.00" waitingCount="0" stopTime="0.00" timeLoss="5.30" rerouteNo="0" devices="tripinfo_NS_8 ssm_NS_8" vType="cars" speedFactor="0.95" vaporized=""/>
    <tripinfo id="SN_9" depart="19.00" departLane="3_1_4" departPos="5.10" departSpeed="0.00" departDelay="1.00" arrival="55.00" arrivalLane="1_5_3" arrivalPos="184.90" arrivalSpeed="12.82" duration="36.00" routeLength="395.12" waitingTime="0.00" waitingCount="0" stopTime="0.00" timeLoss="5.48" rerouteNo="0" devices="tripinfo_SN_9 ssm_SN_9" vType="cars" speedFactor="0.76" vaporized=""/>
    <tripinfo id="NS_11" depart="20.00" departLane="5_1_4" departPos="5.10" departSpeed="0.00" departDelay="0.00" arrival="55.50" arrivalLane="1_3_3" arrivalPos="184.90" arrivalSpeed="12.43" duration="35.50" routeLength="395.12" waitingTime="0.00" waitingCount="0" stopTime="0.00" timeLoss="4.98" rerouteNo="0" devices="tripinfo_NS_11 ssm_NS_11" vType="cars" speedFactor="1.01" vaporized=""/>
    <tripinfo id="EN_10" depart="20.00" departLane="4_1_3" departPos="5.10" departSpeed="0.00" departDelay="0.00" arrival="66.50" arrivalLane="1_5_3" arrivalPos="184.90" arrivalSpeed="12.88" duration="46.50" routeLength="378.83" waitingTime="6.00" waitingCount="1" stopTime="0.00" timeLoss="16.64" rerouteNo="0" devices="tripinfo_EN_10 ssm_EN_10" vType="cars" speedFactor="0.96" vaporized=""/>
    <tripinfo id="WE_0" depart="1.00" departLane="2_1_4" departPos="5.10" departSpeed="0.00" departDelay="0.00" arrival="85.00" arrivalLane="1_4_3" arrivalPos="184.90" arrivalSpeed="12.77" duration="84.00" routeLength="395.12" waitingTime="43.50" waitingCount="1" stopTime="0.00" timeLoss="53.48" rerouteNo="0" devices="tripinfo_WE_0 ssm_WE_0" vType="cars" speedFactor="1.12" vaporized=""/>
    <tripinfo id="EW_0" depart="22.50" departLane="4_1_4" departPos="5.10" departSpeed="0.00" departDelay="0.50" arrival="85.00" arrivalLane="1_2_3" arrivalPos="184.90" arrivalSpeed="12.34" duration="62.50" routeLength="395.12" waitingTime="19.50" waitingCount="1" stopTime="0.00" timeLoss="32.10" rerouteNo="0" devices="tripinfo_EW_0 ssm_EW_0" vType="cars" speedFactor="1.01" vaporized=""/>
    <tripinfo id="WE_1" depart="12.00" departLane="2_1_4" departPos="5.10" departSpeed="0.00" departDelay="0.00" arrival="86.00" arrivalLane="1_4_4" arrivalPos="184.90" arrivalSpeed="12.29" duration="74.00" routeLength="395.12" waitingTime="32.50" waitingCount="1" stopTime="0.00" timeLoss="43.25" rerouteNo="0" devices="tripinfo_WE_1 ssm_WE_1" vType="cars" speedFactor="1.30" vaporized=""/>
    <tripinfo id="WE_2" depart="22.00" departLane="2_1_4" departPos="5.10" departSpeed="0.00" departDelay="0.00" arrival="88.50" arrivalLane="1_4_4" arrivalPos="184.90" arrivalSpeed="12.89" duration="66.50" routeLength="395.12" waitingTime="21.00" waitingCount="1" stopTime="0.00" timeLoss="35.77" rerouteNo="0" devices="tripinfo_WE_2 ssm_WE_2" vType="cars" speedFactor="0.89" vaporized=""/>
    <tripinfo id="EW_1" depart="42.00" departLane="4_1_4" departPos="5.10" departSpeed="0.00" departDelay="0.00" arrival="88.50" arrivalLane="1_2_3" arrivalPos="184.90" arrivalSpeed="12.64" duration="46.50" routeLength="395.12" waitingTime="0.50" waitingCount="1" stopTime="0.00" timeLoss="15.73" rerouteNo="0" devices="tripinfo_EW_1 ssm_EW_1" vType="cars" speedFactor="1.02" vaporized=""/>
    <tripinfo id="WE_3" depart="27.00" departLane="2_1_4" departPos="5.10" departSpeed="0.00" departDelay="0.00" arrival="90.50" arrivalLane="1_4_4" arrivalPos="184.90" arrivalSpeed="12.67" duration="63.50" routeLength="395.12" waitingTime="16.50" waitingCount="1" stopTime="0.00" timeLoss="33.05" rerouteNo="0" devices="tripinfo_WE_3 ssm_WE_3" vType="cars" speedFactor="1.06" vaporized=""/>
    <tripinfo id="EW_2" depart="46.00" departLane="4_1_4" departPos="5.10" departSpeed="0.00" departDelay="0.00" arrival="91.50" arrivalLane="1_2_4" arrivalPos="184.90" arrivalSpeed="12.90" duration="45.50" routeLength="395.12" waitingTime="0.00" waitingCount="0" stopTime="0.00" timeLoss="14.74" rerouteNo="0" devices="tripinfo_EW_2 ssm_EW_2" vType="cars" speedFactor="1.18" vaporized=""/>
    <tripinfo id="EW_3" depart="59.00" departLane="4_1_4" departPos="5.10" departSpeed="0.00" departDelay="0.00" arrival="95.50" arrivalLane="1_2_3" arrivalPos="184.90" arrivalSpeed="12.94" duration="36.50" routeLength="395.12" waitingTime="0.00" waitingCount="0" stopTime="0.00" timeLoss="5.78" rerouteNo="0" devices="tripinfo_EW_3 ssm_EW_3" vType="cars" speedFactor="0.98" vaporized=""/>
    <tripinfo id="EW_4" depart="62.00" departLane="4_1_4" departPos="5.10" departSpeed="0.00" departDelay="0.00" arrival="98.50" arrivalLane="1_2_3" arrivalPos="184.90" arrivalSpeed="11.90" duration="36.50" routeLength="395.12" waitingTime="0.00" waitingCount="0" stopTime="0.00" timeLoss="5.66" rerouteNo="0" devices="tripinfo_EW_4 ssm_EW_4" vType="cars" speedFactor="0.95" vaporized=""/>
    <tripinfo id="WE_4" depart="50.00" departLane="2_1_4" departPos="5.10" departSpeed="0.00" departDelay="0.00" arrival="99.00" arrivalLane="1_4_4" arrivalPos="184.90" arrivalSpeed="12.64" duration="49.00" routeLength="395.12" waitingTime="0.00" waitingCount="0" stopTime="0.00" timeLoss="18.20" rerouteNo="0" devices="tripinfo_WE_4 ssm_WE_4" vType="cars" speedFactor="1.01" vaporized=""/>
    <tripinfo id="EW-bike.0" depart="9.00" departLane="4_1_1" departPos="1.70" departSpeed="0.00" departDelay="0.21" arrival="103.50" arrivalLane="1_2_1" arrivalPos="184.90" arrivalSpeed="6.20" duration="94.50" routeLength="398.71" waitingTime="21.50" waitingCount="1" stopTime="0.00" timeLoss="29.97" rerouteNo="0" devices="tripinfo_EW-bike.0 ssm_EW-bike.0" vType="bike" speedFactor="1.12" vaporized=""/>
    <tripinfo id="WE-bike.0" depart="1.00" departLane="2_1_2" departPos="1.70" departSpeed="0.00" departDelay="0.04" arrival="104.50" arrivalLane="1_4_1" arrivalPos="184.90" arrivalSpeed="5.73" duration="103.50" routeLength="398.63" waitingTime="28.50" waitingCount="1" stopTime="0.00" timeLoss="36.95" rerouteNo="0" devices="tripinfo_WE-bike.0 ssm_WE-bike.0" vType="bike" speedFactor="1.08" vaporized=""/>
    <tripinfo id="WE-bike.3" depart="37.50" departLane="2_1_2" departPos="1.70" departSpeed="0.00" departDelay="0.15" arrival="106.00" arrivalLane="1_4_1" arrivalPos="184.90" arrivalSpeed="6.14" duration="68.50" routeLength="398.63" waitingTime="0.00" waitingCount="0" stopTime="0.00" timeLoss="4.71" rerouteNo="0" devices="tripinfo_WE-bike.3 ssm_WE-bike.3" vType="bike" speedFactor="1.13" vaporized=""/>
    <tripinfo id="EW-bike.1" depart="18.50" departLane="4_1_4" departPos="1.70" departSpeed="0.00" departDelay="0.23" arrival="106.50" arrivalLane="1_2_1" arrivalPos="184.90" arrivalSpeed="5.72" duration="88.00" routeLength="398.52" waitingTime="9.50" waitingCount="1" stopTime="0.00" timeLoss="18.06" rerouteNo="0" devices="tripinfo_EW-bike.1 ssm_EW-bike.1" vType="bike" speedFactor="1.03" vaporized=""/>
    <tripinfo id="EW-bike.2" depart="37.50" departLane="4_1_1" departPos="1.70" departSpeed="0.00" departDelay="0.34" arrival="107.00" arrivalLane="1_2_2" arrivalPos="184.90" arrivalSpeed="6.01" duration="69.50" routeLength="398.71" waitingTime="0.00" waitingCount="0" stopTime="0.00" timeLoss="4.94" rerouteNo="0" devices="tripinfo_EW-bike.2 ssm_EW-bike.2" vType="bike" speedFactor="1.12" vaporized=""/>
    <tripinfo id="WE_5" depart="75.00" departLane="2_1_4" departPos="5.10" departSpeed="0.00" departDelay="0.00" arrival="110.50" arrivalLane="1_4_4" arrivalPos="184.90" arrivalSpeed="12.67" duration="35.50" routeLength="395.12" waitingTime="0.00" waitingCount="0" stopTime="0.00" timeLoss="5.06" rerouteNo="0" devices="tripinfo_WE_5 ssm_WE_5" vType="cars" speedFactor="1.02" vaporized=""/>
    <tripinfo id="EW_5" depart="76.00" departLane="4_1_4" departPos="5.10" departSpeed="0.00" departDelay="0.00" arrival="111.50" arrivalLane="1_2_3" arrivalPos="184.90" arrivalSpeed="12.17" duration="35.50" routeLength="395.12" waitingTime="0.00" waitingCount="0" stopTime="0.00" timeLoss="4.92" rerouteNo="0" devices="tripinfo_EW_5 ssm_EW_5" vType="cars" speedFactor="1.08" vaporized=""/>
    <tripinfo id="WS-bike.0" depart="11.50" departLane="2_1_2" departPos="1.70" departSpeed="0.00" departDelay="0.20" arrival="111.50" arrivalLane="1_3_1" arrivalPos="184.90" arrivalSpeed="4.60" duration="100.00" routeLength="377.28" waitingTime="9.00" waitingCount="1" stopTime="0.00" timeLoss="18.89" rerouteNo="0" devices="tripinfo_WS-bike.0 ssm_WS-bike.0" vType="bike" speedFactor="0.84" vaporized=""/>
    <tripinfo id="WE-bike.6" depart="46.00" departLane="2_1_2" departPos="1.70" departSpeed="0.00" departDelay="0.49" arrival="111.50" arrivalLane="1_4_1" arrivalPos="184.90" arrivalSpeed="6.34" duration="65.50" routeLength="398.63" waitingTime="0.00" waitingCount="0" stopTime="0.00" timeLoss="4.75" rerouteNo="0" devices="tripinfo_WE-bike.6 ssm_WE-bike.6" vType="bike" speedFactor="1.19" vaporized=""/>
    <tripinfo id="WE_6" depart="77.50" departLane="2_1_4" departPos="5.10" departSpeed="0.00" departDelay="0.50" arrival="113.00" arrivalLane="1_4_4" arrivalPos="184.90" arrivalSpeed="12.23" duration="35.50" routeLength="395.12" waitingTime="0.00" waitingCount="0" stopTime="0.00" timeLoss="4.88" rerouteNo="0" devices="tripinfo_WE_6 ssm_WE_6" vType="cars" speedFactor="1.11" vaporized=""/>
    <tripinfo id="WE-bike.2" depart="14.50" departLane="2_1_4" departPos="1.70" departSpeed="0.00" departDelay="0.56" arrival="118.50" arrivalLane="1_4_1" arrivalPos="184.90" arrivalSpeed="4.79" duration="104.00" routeLength="398.52" waitingTime="13.00" waitingCount="1" stopTime="0.00" timeLoss="24.52" rerouteNo="0" devices="tripinfo_WE-bike.2 ssm_WE-bike.2" vType="bike" speedFactor="0.90" vaporized=""/>
    <tripinfo id="WE-bike.4" depart="43.00" departLane="2_1_5" departPos="1.70" departSpeed="0.00" departDelay="0.09" arrival="119.00" arrivalLane="1_4_2" arrivalPos="184.90" arrivalSpeed="5.63" duration="76.00" routeLength="398.52" waitingTime="0.00" waitingCount="0" stopTime="0.00" timeLoss="5.41" rerouteNo="0" devices="tripinfo_WE-bike.4 ssm_WE-bike.4" vType="bike" speedFactor="1.02" vaporized=""/>
    <tripinfo id="WS_3" depart="7.00" departLane="2_1_3" departPos="5.10" departSpeed="0.00" departDelay="0.00" arrival="120.50" arrivalLane="1_3_3" arrivalPos="184.90" arrivalSpeed="12.32" duration="113.50" routeLength="378.83" waitingTime="65.00" waitingCount="3" stopTime="0.00" timeLoss="83.50" rerouteNo="0" devices="tripinfo_WS_3 ssm_WS_3" vType="cars" speedFactor="1.01" vaporized=""/>
    <tripinfo id="WS_6" depart="14.00" departLane="2_1_3" departPos="5.10" departSpeed="0.00" departDelay="0.00" arrival="127.00" arrivalLane="1_3_3" arrivalPos="184.90" arrivalSpeed="12.02" duration="113.00" routeLength="378.83" waitingTime="37.00" waitingCount="5" stopTime="0.00" timeLoss="82.86" rerouteNo="0" devices="tripinfo_WS_6 ssm_WS_6" vType="cars" speedFactor="0.89" vaporized=""/>
    <tripinfo id="WE-bike.1" depart="8.00" departLane="2_1_4" departPos="1.70" departSpeed="0.00" departDelay="0.68" arrival="128.50" arrivalLane="1_4_1" arrivalPos="184.90" arrivalSpeed="4.77" duration="120.50" routeLength="398.52" waitingTime="23.00" waitingCount="2" stopTime="0.00" timeLoss="37.32" rerouteNo="0" devices="tripinfo_WE-bike.1 ssm_WE-bike.1" vType="bike" speedFactor="0.86" vaporized=""/>
    <tripinfo id="WE-bike.5" depart="45.00" departLane="2_1_3" departPos="1.70" departSpeed="0.00" departDelay="0.48" arrival="130.00" arrivalLane="1_4_1" arrivalPos="184.90" arrivalSpeed="4.82" duration="85.00" routeLength="398.52" waitingTime="0.00" waitingCount="0" stopTime="0.00" timeLoss="5.46" rerouteNo="0" devices="tripinfo_WE-bike.5 ssm_WE-bike.5" vType="bike" speedFactor="0.90" vaporized=""/>
    <tripinfo id="WN_7" depart="16.00" departLane="2_1_5" departPos="5.10" departSpeed="0.00" departDelay="0.00" arrival="132.50" arrivalLane="1_5_4" arrivalPos="184.90" arrivalSpeed="12.30" duration="116.50" routeLength="391.63" waitingTime="74.50" waitingCount="1" stopTime="0.00" timeLoss="85.46" rerouteNo="0" devices="tripinfo_WN_7 ssm_WN_7" vType="cars" speedFactor="0.93" vaporized=""/>
    <tripinfo id="ES_24" depart="73.00" departLane="4_1_5" departPos="5.10" departSpeed="0.00" departDelay="0.00" arrival="132.50" arrivalLane="1_3_4" arrivalPos="184.90" arrivalSpeed="12.69" duration="59.50" routeLength="391.63" waitingTime="17.50" waitingCount="1" stopTime="0.00" timeLoss="29.06" rerouteNo="0" devices="tripinfo_ES_24 ssm_ES_24" vType="cars" speedFactor="1.05" vaporized=""/>
    <tripinfo id="WE-bike.8" depart="63.00" departLane="2_1_4" departPos="1.70" departSpeed="0.00" departDelay="0.41" arrival="134.50" arrivalLane="1_4_1" arrivalPos="184.90" arrivalSpeed="6.78" duration="71.50" routeLength="398.52" waitingTime="0.00" waitingCount="0" stopTime="0.00" timeLoss="12.25" rerouteNo="0" devices="tripinfo_WE-bike.8 ssm_WE-bike.8" vType="bike" speedFactor="1.22" vaporized=""/>
    <tripinfo id="WN_35" depart="99.00" departLane="2_1_5" departPos="5.10" departSpeed="0.00" departDelay="0.00" arrival="135.50" arrivalLane="1_5_4" arrivalPos="184.90" arrivalSpeed="12.29" duration="36.50" routeLength="391.63" waitingTime="0.00" waitingCount="0" stopTime="0.00" timeLoss="5.57" rerouteNo="0" devices="tripinfo_WN_35 ssm_WN_35" vType="cars" speedFactor="0.91" vaporized=""/>
    <tripinfo id="WS-bike.1" depart="56.00" departLane="2_1_1" departPos="1.70" departSpeed="0.00" departDelay="0.37" arrival="138.50" arrivalLane="1_3_1" arrivalPos="184.90" arrivalSpeed="5.09" duration="82.50" routeLength="377.28" waitingTime="4.00" waitingCount="1" stopTime="0.00" timeLoss="11.65" rerouteNo="0" devices="tripinfo_WS-bike.1 ssm_WS-bike.1" vType="bike" speedFactor="0.96" vaporized=""/>
    <tripinfo id="WE-bike.7" depart="51.50" departLane="2_1_4" departPos="1.70" departSpeed="0.00" departDelay="0.92" arrival="142.50" arrivalLane="1_4_1" arrivalPos="184.90" arrivalSpeed="5.04" duration="91.00" routeLength="398.52" waitingTime="2.00" waitingCount="1" stopTime="0.00" timeLoss="12.70" rerouteNo="0" devices="tripinfo_WE-bike.7 ssm_WE-bike.7" vType="bike" speedFactor="0.92" vaporized=""/>
    <tripinfo id="WE-bike.10" depart="65.50" departLane="2_1_1" departPos="1.70" departSpeed="0.00" departDelay="0.30" arrival="144.00" arrivalLane="1_4_1" arrivalPos="184.90" arrivalSpeed="5.75" duration="78.50" routeLength="398.63" waitingTime="1.00" waitingCount="1" stopTime="0.00" timeLoss="10.18" rerouteNo="0" devices="tripinfo_WE-bike.10 ssm_WE-bike.10" vType="bike" speedFactor="1.06" vaporized=""/>
    <tripinfo id="EW-bike.3" depart="57.00" departLane="4_1_2" departPos="1.70" departSpeed="0.00" departDelay="0.16" arrival="148.00" arrivalLane="1_2_1" arrivalPos="184.90" arrivalSpeed="4.63" duration="91.00" routeLength="398.71" waitingTime="0.00" waitingCount="0" stopTime="0.00" timeLoss="5.07" rerouteNo="0" devices="tripinfo_EW-bike.3 ssm_EW-bike.3" vType="bike" speedFactor="0.84" vaporized=""/>
    <tripinfo id="NS_14" depart="28.50" departLane="5_1_4" departPos="5.10" departSpeed="0.00" departDelay="1.50" arrival="149.00" arrivalLane="1_3_4" arrivalPos="184.90" arrivalSpeed="11.97" duration="120.50" routeLength="395.12" waitingTime="79.50" waitingCount="1" stopTime="0.00" timeLoss="90.03" rerouteNo="0" devices="tripinfo_NS_14 ssm_NS_14" vType="cars" speedFactor="0.93" vaporized=""/>
    <tripinfo id="SN_15" depart="29.00" departLane="3_1_4" departPos="5.10" departSpeed="0.00" departDelay="0.00" arrival="149.50" arrivalLane="1_5_3" arrivalPos="184.90" arrivalSpeed="12.80" duration="120.50" routeLength="395.12" waitingTime="79.50" waitingCount="1" stopTime="0.00" timeLoss="89.83" rerouteNo="0" devices="tripinfo_SN_15 ssm_SN_15" vType="cars" speedFactor="0.85" vaporized=""/>
    <tripinfo id="NS_13" depart="26.00" departLane="5_1_4" departPos="5.10" departSpeed="0.00" departDelay="0.00" arrival="150.00" arrivalLane="1_3_3" arrivalPos="184.90" arrivalSpeed="11.72" duration="124.00" routeLength="395.12" waitingTime="83.00" waitingCount="1" stopTime="0.00" timeLoss="93.60" rerouteNo="0" devices="tripinfo_NS_13 ssm_NS_13" vType="cars" speedFactor="0.95" vaporized=""/>
    <tripinfo id="SN_12" depart="25.00" departLane="3_1_4" departPos="5.10" departSpeed="0.00" departDelay="0.00" arrival="151.50" arrivalLane="1_5_3" arrivalPos="184.90" arrivalSpeed="12.51" duration="126.50" routeLength="395.12" waitingTime="83.50" waitingCount="1" stopTime="0.00" timeLoss="95.70" rerouteNo="0" devices="tripinfo_SN_12 ssm_SN_12" vType="cars" speedFactor="0.83" vaporized=""/>
    <tripinfo id="SN_17" depart="33.00" departLane="3_1_4" departPos="5.10" departSpeed="0.00" departDelay="0.00" arrival="151.50" arrivalLane="1_5_4" arrivalPos="184.90" arrivalSpeed="12.05" duration="118.50" routeLength="395.12" waitingTime="74.00" waitingCount="1" stopTime="0.00" timeLoss="87.87" rerouteNo="0" devices="tripinfo_SN_17 ssm_SN_17" vType="cars" speedFactor="1.10" vaporized=""/>
    <tripinfo id="NS_16" depart="34.00" departLane="5_1_4" departPos="5.10" departSpeed="0.00" departDelay="4.00" arrival="152.00" arrivalLane="1_3_4" arrivalPos="184.90" arrivalSpeed="12.40" duration="118.00" routeLength="395.12" waitingTime="72.50" waitingCount="1" stopTime="0.00" timeLoss="87.58" rerouteNo="0" devices="tripinfo_NS_16 ssm_NS_16" vType="cars" speedFactor="1.12" vaporized=""/>
    <tripinfo id="SN_18" depart="36.00" departLane="3_1_4" departPos="5.10" departSpeed="0.00" departDelay="0.00" arrival="153.50" arrivalLane="1_5_4" arrivalPos="184.90" arrivalSpeed="12.93" duration="117.50" routeLength="395.12" waitingTime="71.00" waitingCount="1" stopTime="0.00" timeLoss="86.83" rerouteNo="0" devices="tripinfo_SN_18 ssm_SN_18" vType="cars" speedFactor="0.96" vaporized=""/>
    <tripinfo id="NS_26" depart="75.00" departLane="5_1_4" departPos="5.10" departSpeed="0.00" departDelay="0.00" arrival="154.50" arrivalLane="1_3_3" arrivalPos="184.90" arrivalSpeed="11.88" duration="79.50" routeLength="395.12" waitingTime="32.00" waitingCount="1" stopTime="0.00" timeLoss="48.72" rerouteNo="0" devices="tripinfo_NS_26 ssm_NS_26" vType="cars" speedFactor="1.04" vaporized=""/>
    <tripinfo id="NS_29" depart="83.00" departLane="5_1_4" departPos="5.10" departSpeed="0.00" departDelay="0.00" arrival="156.00" arrivalLane="1_3_4" arrivalPos="184.90" arrivalSpeed="11.67" duration="73.00" routeLength="395.12" waitingTime="25.50" waitingCount="1" stopTime="0.00" timeLoss="42.45" rerouteNo="0" devices="tripinfo_NS_29 ssm_NS_29" vType="cars" speedFactor="1.05" vaporized=""/>
    <tripinfo id="NS_32" depart="87.00" departLane="5_1_4" departPos="5.10" departSpeed="0.00" departDelay="0.00" arrival="158.00" arrivalLane="1_3_4" arrivalPos="184.90" arrivalSpeed="13.00" duration="71.00" routeLength="395.12" waitingTime="22.00" waitingCount="1" stopTime="0.00" timeLoss="40.31" rerouteNo="0" devices="tripinfo_NS_32 ssm_NS_32" vType="cars" speedFactor="0.98" vaporized=""/>
    <tripinfo id="NS_37" depart="105.00" departLane="5_1_4" departPos="5.10" departSpeed="0.00" departDelay="0.00" arrival="159.50" arrivalLane="1_3_4" arrivalPos="184.90" arrivalSpeed="12.86" duration="54.50" routeLength="395.12" waitingTime="8.00" waitingCount="1" stopTime="0.00" timeLoss="24.09" rerouteNo="0" devices="tripinfo_NS_37 ssm_NS_37" vType="cars" speedFactor="0.95" vaporized=""/>
    <tripinfo id="SN_25" depart="74.00" departLane="3_1_4" departPos="5.10" departSpeed="0.00" departDelay="0.00" arrival="161.00" arrivalLane="1_5_3" arrivalPos="184.90" arrivalSpeed="11.80" duration="87.00" routeLength="395.12" waitingTime="36.50" waitingCount="1" stopTime="0.00" timeLoss="56.28" rerouteNo="0" devices="tripinfo_SN_25 ssm_SN_25" vType="cars" speedFactor="1.01" vaporized=""/>
    <tripinfo id="NS_42" depart="122.00" departLane="5_1_4" departPos="5.10" departSpeed="0.00" departDelay="0.00" arrival="162.00" arrivalLane="1_3_3" arrivalPos="184.90" arrivalSpeed="12.57" duration="40.00" routeLength="395.12" waitingTime="0.00" waitingCount="0" stopTime="0.00" timeLoss="9.17" rerouteNo="0" devices="tripinfo_NS_42 ssm_NS_42" vType="cars" speedFactor="0.89" vaporized=""/>
    <tripinfo id="SN_30" depart="86.50" departLane="3_1_4" departPos="5.10" departSpeed="0.00" departDelay="3.50" arrival="163.00" arrivalLane="1_5_3" arrivalPos="184.90" arrivalSpeed="12.06" duration="76.50" routeLength="395.12" waitingTime="24.00" waitingCount="1" stopTime="0.00" timeLoss="45.79" rerouteNo="0" devices="tripinfo_SN_30 ssm_SN_30" vType="cars" speedFactor="1.00" vaporized=""/>
    <tripinfo id="SN_31" depart="89.50" departLane="3_1_4" departPos="5.10" departSpeed="0.00" departDelay="5.50" arrival="164.50" arrivalLane="1_5_3" arrivalPos="184.90" arrivalSpeed="12.45" duration="75.00" routeLength="395.12" waitingTime="23.00" waitingCount="1" stopTime="0.00" timeLoss="44.49" rerouteNo="0" devices="tripinfo_SN_31 ssm_SN_31" vType="cars" speedFactor="0.88" vaporized=""/>
    <tripinfo id="NS_22" depart="66.00" departLane="5_1_4" departPos="5.10" departSpeed="0.00" departDelay="0.00" arrival="166.00" arrivalLane="1_3_4" arrivalPos="184.90" arrivalSpeed="12.22" duration="100.00" routeLength="395.12" waitingTime="46.00" waitingCount="2" stopTime="0.00" timeLoss="69.24" rerouteNo="0" devices="tripinfo_NS_22 ssm_NS_22" vType="cars" speedFactor="0.93" vaporized=""/>
    <tripinfo id="SN_38" depart="107.00" departLane="3_1_4" departPos="5.10" departSpeed="0.00" departDelay="0.00" arrival="166.50" arrivalLane="1_5_3" arrivalPos="184.90" arrivalSpeed="12.18" duration="59.50" routeLength="395.12" waitingTime="7.50" waitingCount="1" stopTime="0.00" timeLoss="28.75" rerouteNo="0" devices="tripinfo_SN_38 ssm_SN_38" vType="cars" speedFactor="0.98" vaporized=""/>
    <tripinfo id="SN_40" depart="110.00" departLane="3_1_4" departPos="5.10" departSpeed="0.00" departDelay="0.00" arrival="167.50" arrivalLane="1_5_4" arrivalPos="184.90" arrivalSpeed="12.88" duration="57.50" routeLength="395.12" waitingTime="6.00" waitingCount="1" stopTime="0.00" timeLoss="27.02" rerouteNo="0" devices="tripinfo_SN_40 ssm_SN_40" vType="cars" speedFactor="1.12" vaporized=""/>
    <tripinfo id="SN-bike.1" depart="21.50" departLane="3_1_1" departPos="1.70" departSpeed="0.00" departDelay="0.02" arrival="168.50" arrivalLane="1_5_1" arrivalPos="184.90" arrivalSpeed="5.74" duration="147.00" routeLength="398.62" waitingTime="72.50" waitingCount="1" stopTime="0.00" timeLoss="80.68" rerouteNo="0" devices="tripinfo_SN-bike.1 ssm_SN-bike.1" vType="bike" speedFactor="1.08" vaporized=""/>
    <tripinfo id="SN_45" depart="128.00" departLane="3_1_4" departPos="5.10" departSpeed="0.00" departDelay="0.00" arrival="169.50" arrivalLane="1_5_3" arrivalPos="184.90" arrivalSpeed="12.03" duration="41.50" routeLength="395.12" waitingTime="0.00" waitingCount="0" stopTime="0.00" timeLoss="11.05" rerouteNo="0" devices="tripinfo_SN_45 ssm_SN_45" vType="cars" speedFactor="0.98" vaporized=""/>
    <tripinfo id="WN-bike.0" depart="40.50" departLane="2_1_1" departPos="1.70" departSpeed="0.00" departDelay="0.07" arrival="169.50" arrivalLane="1_5_1" arrivalPos="184.90" arrivalSpeed="5.31" duration="129.00" routeLength="419.78" waitingTime="45.00" waitingCount="1" stopTime="0.00" timeLoss="53.38" rerouteNo="0" devices="tripinfo_WN-bike.0 ssm_WN-bike.0" vType="bike" speedFactor="1.00" vaporized=""/>
    <tripinfo id="NS_41" depart="111.00" departLane="5_1_4" departPos="5.10" departSpeed="0.00" departDelay="0.00" arrival="171.00" arrivalLane="1_3_4" arrivalPos="184.90" arrivalSpeed="12.54" duration="60.00" routeLength="395.12" waitingTime="1.50" waitingCount="1" stopTime="0.00" timeLoss="29.44" rerouteNo="0" devices="tripinfo_NS_41 ssm_NS_41" vType="cars" speedFactor="1.05" vaporized=""/>
    <tripinfo id="SN_47" depart="132.00" departLane="3_1_4" departPos="5.10" departSpeed="0.00" departDelay="0.00" arrival="171.50" arrivalLane="1_5_3" arrivalPos="184.90" arrivalSpeed="11.85" duration="39.50" routeLength="395.12" waitingTime="0.00" waitingCount="0" stopTime="0.00" timeLoss="8.78" rerouteNo="0" devices="tripinfo_SN_47 ssm_SN_47" vType="cars" speedFactor="1.02" vaporized=""/>
    <tripinfo id="NS_46" depart="132.50" departLane="5_1_4" departPos="5.10" departSpeed="0.00" departDelay="1.50" arrival="173.00" arrivalLane="1_3_4" arrivalPos="184.90" arrivalSpeed="11.89" duration="40.50" routeLength="395.12" waitingTime="0.00" waitingCount="0" stopTime="0.00" timeLoss="9.81" rerouteNo="0" devices="tripinfo_NS_46 ssm_NS_46" vType="cars" speedFactor="0.92" vaporized=""/>
    <tripinfo id="SN_50" depart="135.00" departLane="3_1_4" departPos="5.10" departSpeed="0.00" departDelay="1.00" arrival="173.00" arrivalLane="1_5_4" arrivalPos="184.90" arrivalSpeed="11.51" duration="38.00" routeLength="395.12" waitingTime="0.00" waitingCount="0" stopTime="0.00" timeLoss="7.59" rerouteNo="0" devices="tripinfo_SN_50 ssm_SN_50" vType="cars" speedFactor="0.80" vaporized=""/>
    <personinfo id="person_WE_s.0" depart="1.50" type="DEFAULT_PEDTYPE" speedFactor="0.98" duration="172.50" waitingTime="0.00" timeLoss="10.43" traveltime="172.50">
        <walk depart="1.50" departPos="100.00" arrival="174.00" arrivalPos="92.45" duration="172.50" routeLength="219.51" timeLoss="10.43" maxSpeed="1.35"/>
    </personinfo>
    <tripinfo id="SE_19" depart="39.00" departLane="3_1_3" departPos="5.10" departSpeed="0.00" departDelay="0.00" arrival="175.00" arrivalLane="1_4_3" arrivalPos="184.90" arrivalSpeed="12.47" duration="136.00" routeLength="378.82" waitingTime="87.00" waitingCount="2" stopTime="0.00" timeLoss="105.82" rerouteNo="0" devices="tripinfo_SE_19 ssm_SE_19" vType="cars" speedFactor="0.92" vaporized=""/>
    <tripinfo id="NS_49" depart="135.50" departLane="5_1_4" departPos="5.10" departSpeed="0.00" departDelay="1.50" arrival="175.00" arrivalLane="1_3_4" arrivalPos="184.90" arrivalSpeed="11.67" duration="39.50" routeLength="395.12" waitingTime="0.00" waitingCount="0" stopTime="0.00" timeLoss="8.81" rerouteNo="0" devices="tripinfo_NS_49 ssm_NS_49" vType="cars" speedFactor="0.93" vaporized=""/>