<?xml version="1.0" encoding="UTF-8"?>

<!-- generated on 2025-03-21 19:23:49 by Eclipse SUMO GUI Version 1.20.0
<configuration xmlns:xsi="http://www.w3.org/2001/XMLSchema-instance" xsi:noNamespaceSchemaLocation="http://sumo.dlr.de/xsd/sumoConfiguration.xsd">

    <input>
        <net-file value="/home/naderian/Desktop/Shakiba/MMSVCC/environment/network_model/single_intersection_pedestrian_X.net.xml"/>
        <route-files value="/home/naderian/Desktop/Shakiba/MMSVCC/environment/network_model/single_intersection.rou.xml"/>
        <additional-files value="/home/naderian/Desktop/Shakiba/MMSVCC/environment/network_model/single_intersection_Concurrent.add.xml"/>
    </input>

    <output>
        <queue-output value="/home/naderian/Desktop/Shakiba/MMSVCC/environment/simulation_data/single_intersection/queues_multi_scale_asymmetric_pene_100.xml"/>
        <tripinfo-output value="/home/naderian/Desktop/Shakiba/MMSVCC/environment/simulation_data/single_intersection/tripinfo_multi_scale_asymmetric_pene_100.xml"/>
    </output>

    <time>
        <begin value="0"/>
        <step-length value="0.5"/>
    </time>

    <processing>
        <waiting-time-memory value="1000"/>
    </processing>

    <report>
        <verbose value="true"/>
        <no-step-log value="true"/>
    </report>

    <traci_server>
        <remote-port value="48145"/>
    </traci_server>

    <gui_only>
        <start value="true"/>
    </gui_only>

</configuration>
-->

<tripinfos xmlns:xsi="http://www.w3.org/2001/XMLSchema-instance" xsi:noNamespaceSchemaLocation="http://sumo.dlr.de/xsd/tripinfo_file.xsd">
    <tripinfo id="SN_0" depart="0.00" departLane="3_1_2" departPos="5.10" departSpeed="0.00" departDelay="0.00" arrival="35.00" arrivalLane="1_5_1" arrivalPos="186.40" arrivalSpeed="13.00" duration="35.00" routeLength="395.15" waitingTime="0.00" waitingCount="0" stopTime="0.00" timeLoss="4.21" rerouteNo="0" devices="tripinfo_SN_0" vType="cars" speedFactor="1.04" vaporized=""/>
    <tripinfo id="NS_1" depart="1.00" departLane="5_1_2" departPos="5.10" departSpeed="0.00" departDelay="0.00" arrival="37.00" arrivalLane="1_3_1" arrivalPos="186.40" arrivalSpeed="13.00" duration="36.00" routeLength="395.15" waitingTime="0.00" waitingCount="0" stopTime="0.00" timeLoss="5.41" rerouteNo="0" devices="tripinfo_NS_1" vType="cars" speedFactor="0.95" vaporized=""/>
    <tripinfo id="SN_2" depart="5.00" departLane="3_1_2" departPos="5.10" departSpeed="0.00" departDelay="0.00" arrival="40.50" arrivalLane="1_5_1" arrivalPos="186.40" arrivalSpeed="13.00" duration="35.50" routeLength="395.15" waitingTime="0.00" waitingCount="0" stopTime="0.00" timeLoss="4.90" rerouteNo="0" devices="tripinfo_SN_2" vType="cars" speedFactor="0.85" vaporized=""/>
    <tripinfo id="WE_0" depart="1.00" departLane="2_1_2" departPos="5.10" departSpeed="0.00" departDelay="0.00" arrival="50.00" arrivalLane="1_4_1" arrivalPos="186.40" arrivalSpeed="13.00" duration="49.00" routeLength="395.15" waitingTime="8.50" waitingCount="1" stopTime="0.00" timeLoss="18.55" rerouteNo="0" devices="tripinfo_WE_0" vType="cars" speedFactor="0.86" vaporized=""/>
    <tripinfo id="WE_1" depart="10.00" departLane="2_1_2" departPos="5.10" departSpeed="0.00" departDelay="0.00" arrival="50.00" arrivalLane="1_4_2" arrivalPos="186.40" arrivalSpeed="13.00" duration="40.00" routeLength="395.15" waitingTime="1.00" waitingCount="1" stopTime="0.00" timeLoss="9.55" rerouteNo="0" devices="tripinfo_WE_1" vType="cars" speedFactor="1.10" vaporized=""/>
    <tripinfo id="WS_3" depart="7.00" departLane="2_1_1" departPos="5.10" departSpeed="0.00" departDelay="0.00" arrival="51.00" arrivalLane="1_3_1" arrivalPos="186.40" arrivalSpeed="13.00" duration="44.00" routeLength="379.43" waitingTime="0.50" waitingCount="1" stopTime="0.00" timeLoss="13.86" rerouteNo="0" devices="tripinfo_WS_3" vType="cars" speedFactor="0.93" vaporized=""/>
    <tripinfo id="WE_2" depart="12.50" departLane="2_1_2" departPos="5.10" departSpeed="0.00" departDelay="0.50" arrival="51.50" arrivalLane="1_4_1" arrivalPos="186.40" arrivalSpeed="13.00" duration="39.00" routeLength="395.15" waitingTime="0.00" waitingCount="0" stopTime="0.00" timeLoss="8.59" rerouteNo="0" devices="tripinfo_WE_2" vType="cars" speedFactor="1.17" vaporized=""/>
    <tripinfo id="WS_5" depart="16.00" departLane="2_1_1" departPos="5.10" departSpeed="0.00" departDelay="0.00" arrival="53.50" arrivalLane="1_3_1" arrivalPos="186.40" arrivalSpeed="13.00" duration="37.50" routeLength="379.43" waitingTime="0.00" waitingCount="0" stopTime="0.00" timeLoss="7.32" rerouteNo="0" devices="tripinfo_WS_5" vType="cars" speedFactor="1.02" vaporized=""/>
    <tripinfo id="WE_3" depart="19.00" departLane="2_1_2" departPos="5.10" departSpeed="0.00" departDelay="0.00" arrival="54.50" arrivalLane="1_4_2" arrivalPos="186.40" arrivalSpeed="13.00" duration="35.50" routeLength="395.15" waitingTime="0.00" waitingCount="0" stopTime="0.00" timeLoss="4.94" rerouteNo="0" devices="tripinfo_WE_3" vType="cars" speedFactor="0.90" vaporized=""/>
    <tripinfo id="WE_4" depart="26.00" departLane="2_1_2" departPos="5.10" departSpeed="0.00" departDelay="0.00" arrival="61.50" arrivalLane="1_4_1" arrivalPos="186.40" arrivalSpeed="13.00" duration="35.50" routeLength="395.15" waitingTime="0.00" waitingCount="0" stopTime="0.00" timeLoss="4.82" rerouteNo="0" devices="tripinfo_WE_4" vType="cars" speedFactor="1.00" vaporized=""/>
    <tripinfo id="WE_5" depart="29.00" departLane="2_1_2" departPos="5.10" departSpeed="0.00" departDelay="0.00" arrival="65.00" arrivalLane="1_4_1" arrivalPos="186.40" arrivalSpeed="13.00" duration="36.00" routeLength="395.15" waitingTime="0.00" waitingCount="0" stopTime="0.00" timeLoss="5.44" rerouteNo="0" devices="tripinfo_WE_5" vType="cars" speedFactor="0.96" vaporized=""/>
    <tripinfo id="WE_6" depart="32.00" departLane="2_1_2" departPos="5.10" departSpeed="0.00" departDelay="2.00" arrival="70.50" arrivalLane="1_4_1" arrivalPos="186.40" arrivalSpeed="11.00" duration="38.50" routeLength="395.15" waitingTime="0.00" waitingCount="0" stopTime="0.00" timeLoss="8.10" rerouteNo="0" devices="tripinfo_WE_6" vType="cars" speedFactor="0.89" vaporized=""/>
    <tripinfo id="EW_0" depart="32.00" departLane="4_1_2" departPos="5.10" departSpeed="0.00" departDelay="0.00" arrival="71.00" arrivalLane="1_2_1" arrivalPos="186.40" arrivalSpeed="11.00" duration="39.00" routeLength="395.15" waitingTime="0.00" waitingCount="0" stopTime="0.00" timeLoss="8.32" rerouteNo="0" devices="tripinfo_EW_0" vType="cars" speedFactor="0.84" vaporized=""/>
    <tripinfo id="NS_7" depart="22.00" departLane="5_1_2" departPos="5.10" departSpeed="0.00" departDelay="0.00" arrival="77.00" arrivalLane="1_3_1" arrivalPos="186.40" arrivalSpeed="13.00" duration="55.00" routeLength="395.15" waitingTime="15.00" waitingCount="1" stopTime="0.00" timeLoss="24.55" rerouteNo="0" devices="tripinfo_NS_7" vType="cars" speedFactor="1.04" vaporized=""/>
    <tripinfo id="SN_8" depart="25.00" departLane="3_1_2" departPos="5.10" departSpeed="0.00" departDelay="0.00" arrival="77.00" arrivalLane="1_5_1" arrivalPos="186.40" arrivalSpeed="13.00" duration="52.00" routeLength="395.15" waitingTime="7.00" waitingCount="2" stopTime="0.00" timeLoss="21.55" rerouteNo="0" devices="tripinfo_SN_8" vType="cars" speedFactor="0.98" vaporized=""/>
    <tripinfo id="SN_9" depart="27.50" departLane="3_1_2" departPos="5.10" departSpeed="0.00" departDelay="1.50" arrival="77.00" arrivalLane="1_5_2" arrivalPos="186.40" arrivalSpeed="13.00" duration="49.50" routeLength="395.15" waitingTime="9.00" waitingCount="1" stopTime="0.00" timeLoss="19.05" rerouteNo="0" devices="tripinfo_SN_9" vType="cars" speedFactor="1.17" vaporized=""/>
    <tripinfo id="NS_12" depart="34.00" departLane="5_1_2" departPos="5.10" departSpeed="0.00" departDelay="0.00" arrival="77.50" arrivalLane="1_3_2" arrivalPos="186.40" arrivalSpeed="13.00" duration="43.50" routeLength="395.15" waitingTime="0.00" waitingCount="0" stopTime="0.00" timeLoss="13.03" rerouteNo="0" devices="tripinfo_NS_12" vType="cars" speedFactor="0.90" vaporized=""/>
    <tripinfo id="SN_10" depart="30.50" departLane="3_1_2" departPos="5.10" departSpeed="0.00" departDelay="1.50" arrival="78.50" arrivalLane="1_5_1" arrivalPos="186.40" arrivalSpeed="13.00" duration="48.00" routeLength="395.15" waitingTime="3.00" waitingCount="6" stopTime="0.00" timeLoss="17.59" rerouteNo="0" devices="tripinfo_SN_10" vType="cars" speedFactor="0.97" vaporized=""/>
    <tripinfo id="SN_11" depart="33.00" departLane="3_1_2" departPos="5.10" departSpeed="0.00" departDelay="3.00" arrival="78.50" arrivalLane="1_5_2" arrivalPos="186.40" arrivalSpeed="13.00" duration="45.50" routeLength="395.15" waitingTime="0.00" waitingCount="0" stopTime="0.00" timeLoss="15.09" rerouteNo="0" devices="tripinfo_SN_11" vType="cars" speedFactor="1.02" vaporized=""/>
    <tripinfo id="SE_13" depart="36.00" departLane="3_1_1" departPos="5.10" departSpeed="0.00" departDelay="0.00" arrival="85.00" arrivalLane="1_4_1" arrivalPos="186.40" arrivalSpeed="9.34" duration="49.00" routeLength="379.42" waitingTime="0.50" waitingCount="1" stopTime="0.00" timeLoss="19.25" rerouteNo="0" devices="tripinfo_SE_13" vType="cars" speedFactor="1.13" vaporized=""/>
    <tripinfo id="SN_14" depart="38.00" departLane="3_1_2" departPos="5.10" departSpeed="0.00" departDelay="0.00" arrival="85.50" arrivalLane="1_5_2" arrivalPos="186.40" arrivalSpeed="9.76" duration="47.50" routeLength="395.15" waitingTime="0.00" waitingCount="0" stopTime="0.00" timeLoss="16.85" rerouteNo="0" devices="tripinfo_SN_14" vType="cars" speedFactor="0.96" vaporized=""/>
    <tripinfo id="NS_17" depart="50.00" departLane="5_1_2" departPos="5.10" departSpeed="0.00" departDelay="0.00" arrival="85.50" arrivalLane="1_3_1" arrivalPos="186.40" arrivalSpeed="13.00" duration="35.50" routeLength="395.15" waitingTime="0.00" waitingCount="0" stopTime="0.00" timeLoss="4.72" rerouteNo="0" devices="tripinfo_NS_17" vType="cars" speedFactor="0.95" vaporized=""/>
    <tripinfo id="SN_18" depart="50.00" departLane="3_1_2" departPos="5.10" departSpeed="0.00" departDelay="0.00" arrival="85.50" arrivalLane="1_5_1" arrivalPos="186.40" arrivalSpeed="13.00" duration="35.50" routeLength="395.15" waitingTime="0.00" waitingCount="0" stopTime="0.00" timeLoss="4.83" rerouteNo="0" devices="tripinfo_SN_18" vType="cars" speedFactor="0.99" vaporized=""/>
    <tripinfo id="SE_15" depart="39.00" departLane="3_1_1" departPos="5.10" departSpeed="0.00" departDelay="0.00" arrival="86.50" arrivalLane="1_4_1" arrivalPos="186.40" arrivalSpeed="13.00" duration="47.50" routeLength="379.42" waitingTime="0.00" waitingCount="0" stopTime="0.00" timeLoss="17.20" rerouteNo="0" devices="tripinfo_SE_15" vType="cars" speedFactor="0.99" vaporized=""/>
    <tripinfo id="SN_16" depart="41.50" departLane="3_1_2" departPos="5.10" departSpeed="0.00" departDelay="1.50" arrival="87.00" arrivalLane="1_5_1" arrivalPos="186.40" arrivalSpeed="13.00" duration="45.50" routeLength="395.15" waitingTime="0.00" waitingCount="0" stopTime="0.00" timeLoss="14.71" rerouteNo="0" devices="tripinfo_SN_16" vType="cars" speedFactor="0.93" vaporized=""/>
    <tripinfo id="NW_19" depart="53.00" departLane="5_1_1" departPos="5.10" departSpeed="0.00" departDelay="0.00" arrival="88.50" arrivalLane="1_2_1" arrivalPos="186.40" arrivalSpeed="13.00" duration="35.50" routeLength="379.43" waitingTime="0.00" waitingCount="0" stopTime="0.00" timeLoss="5.36" rerouteNo="0" devices="tripinfo_NW_19" vType="cars" speedFactor="1.00" vaporized=""/>
    <tripinfo id="EW_1" depart="37.00" departLane="4_1_2" departPos="5.10" departSpeed="0.00" departDelay="0.00" arrival="99.00" arrivalLane="1_2_1" arrivalPos="186.40" arrivalSpeed="13.00" duration="62.00" routeLength="395.15" waitingTime="18.00" waitingCount="1" stopTime="0.00" timeLoss="31.55" rerouteNo="0" devices="tripinfo_EW_1" vType="cars" speedFactor="1.00" vaporized=""/>
    <tripinfo id="EW_2" depart="42.00" departLane="4_1_2" departPos="5.10" departSpeed="0.00" departDelay="0.00" arrival="99.00" arrivalLane="1_2_2" arrivalPos="186.40" arrivalSpeed="13.00" duration="57.00" routeLength="395.15" waitingTime="12.00" waitingCount="1" stopTime="0.00" timeLoss="26.55" rerouteNo="0" devices="tripinfo_EW_2" vType="cars" speedFactor="1.13" vaporized=""/>
    <tripinfo id="ES_4" depart="14.00" departLane="4_1_3" departPos="5.10" departSpeed="0.00" departDelay="0.00" arrival="100.00" arrivalLane="1_3_2" arrivalPos="186.40" arrivalSpeed="13.00" duration="86.00" routeLength="392.22" waitingTime="41.50" waitingCount="1" stopTime="0.00" timeLoss="55.14" rerouteNo="0" devices="tripinfo_ES_4" vType="cars" speedFactor="1.12" vaporized=""/>
    <tripinfo id="EW_3" depart="62.00" departLane="4_1_2" departPos="5.10" departSpeed="0.00" departDelay="0.00" arrival="100.50" arrivalLane="1_2_1" arrivalPos="186.40" arrivalSpeed="13.00" duration="38.50" routeLength="395.15" waitingTime="0.00" waitingCount="0" stopTime="0.00" timeLoss="8.09" rerouteNo="0" devices="tripinfo_EW_3" vType="cars" speedFactor="0.98" vaporized=""/>
    <tripinfo id="SN_20" depart="60.00" departLane="3_1_2" departPos="5.10" departSpeed="0.00" departDelay="0.00" arrival="116.00" arrivalLane="1_5_1" arrivalPos="186.40" arrivalSpeed="13.00" duration="56.00" routeLength="395.15" waitingTime="10.00" waitingCount="2" stopTime="0.00" timeLoss="25.55" rerouteNo="0" devices="tripinfo_SN_20" vType="cars" speedFactor="0.83" vaporized=""/>
    <tripinfo id="SN_22" depart="75.00" departLane="3_1_2" departPos="5.10" departSpeed="0.00" departDelay="0.00" arrival="116.50" arrivalLane="1_5_2" arrivalPos="186.40" arrivalSpeed="13.00" duration="41.50" routeLength="395.15" waitingTime="0.00" waitingCount="0" stopTime="0.00" timeLoss="10.81" rerouteNo="0" devices="tripinfo_SN_22" vType="cars" speedFactor="0.86" vaporized=""/>
    <tripinfo id="SN_25" depart="84.00" departLane="3_1_2" departPos="5.10" departSpeed="0.00" departDelay="0.00" arrival="120.50" arrivalLane="1_5_2" arrivalPos="186.40" arrivalSpeed="13.00" duration="36.50" routeLength="395.15" waitingTime="0.00" waitingCount="0" stopTime="0.00" timeLoss="5.68" rerouteNo="0" devices="tripinfo_SN_25" vType="cars" speedFactor="1.06" vaporized=""/>
    <tripinfo id="SN_26" depart="87.00" departLane="3_1_2" departPos="5.10" departSpeed="0.00" departDelay="2.00" arrival="123.00" arrivalLane="1_5_1" arrivalPos="186.40" arrivalSpeed="13.00" duration="36.00" routeLength="395.15" waitingTime="0.00" waitingCount="0" stopTime="0.00" timeLoss="5.48" rerouteNo="0" devices="tripinfo_SN_26" vType="cars" speedFactor="0.93" vaporized=""/>
    <tripinfo id="NS_27" depart="89.00" departLane="5_1_2" departPos="5.10" departSpeed="0.00" departDelay="0.00" arrival="124.50" arrivalLane="1_3_2" arrivalPos="186.40" arrivalSpeed="13.00" duration="35.50" routeLength="395.15" waitingTime="0.00" waitingCount="0" stopTime="0.00" timeLoss="4.77" rerouteNo="0" devices="tripinfo_NS_27" vType="cars" speedFactor="0.90" vaporized=""/>
    <tripinfo id="NS_29" depart="92.00" departLane="5_1_2" departPos="5.10" departSpeed="0.00" departDelay="0.00" arrival="128.50" arrivalLane="1_3_2" arrivalPos="186.40" arrivalSpeed="13.00" duration="36.50" routeLength="395.15" waitingTime="0.00" waitingCount="0" stopTime="0.00" timeLoss="5.76" rerouteNo="0" devices="tripinfo_NS_29" vType="cars" speedFactor="1.02" vaporized=""/>
    <tripinfo id="NW_21" depart="69.00" departLane="5_1_1" departPos="5.10" departSpeed="0.00" departDelay="0.00" arrival="132.50" arrivalLane="1_2_1" arrivalPos="186.40" arrivalSpeed="13.00" duration="63.50" routeLength="379.43" waitingTime="18.50" waitingCount="3" stopTime="0.00" timeLoss="33.34" rerouteNo="0" devices="tripinfo_NW_21" vType="cars" speedFactor="1.07" vaporized=""/>
    <tripinfo id="SE_24" depart="83.00" departLane="3_1_1" departPos="5.10" departSpeed="0.00" departDelay="0.00" arrival="133.50" arrivalLane="1_4_1" arrivalPos="186.40" arrivalSpeed="13.00" duration="50.50" routeLength="379.42" waitingTime="12.00" waitingCount="1" stopTime="0.00" timeLoss="20.21" rerouteNo="0" devices="tripinfo_SE_24" vType="cars" speedFactor="1.03" vaporized=""/>
    <tripinfo id="WE_8" depart="78.00" departLane="2_1_2" departPos="5.10" departSpeed="0.00" departDelay="0.00" arrival="145.00" arrivalLane="1_4_1" arrivalPos="186.40" arrivalSpeed="13.00" duration="67.00" routeLength="395.15" waitingTime="22.50" waitingCount="1" stopTime="0.00" timeLoss="36.55" rerouteNo="0" devices="tripinfo_WE_8" vType="cars" speedFactor="0.86" vaporized=""/>
    <tripinfo id="WE_7" depart="67.00" departLane="2_1_2" departPos="5.10" departSpeed="0.00" departDelay="0.00" arrival="147.50" arrivalLane="1_4_1" arrivalPos="186.40" arrivalSpeed="13.00" duration="80.50" routeLength="395.15" waitingTime="38.50" waitingCount="2" stopTime="0.00" timeLoss="50.05" rerouteNo="0" devices="tripinfo_WE_7" vType="cars" speedFactor="0.93" vaporized=""/>
    <tripinfo id="WE_9" depart="109.00" departLane="2_1_2" departPos="5.10" departSpeed="0.00" departDelay="0.00" arrival="150.50" arrivalLane="1_4_2" arrivalPos="186.40" arrivalSpeed="13.00" duration="41.50" routeLength="395.15" waitingTime="0.00" waitingCount="0" stopTime="0.00" timeLoss="10.73" rerouteNo="0" devices="tripinfo_WE_9" vType="cars" speedFactor="0.95" vaporized=""/>
    <tripinfo id="WE_10" depart="117.00" departLane="2_1_2" departPos="5.10" departSpeed="0.00" departDelay="0.00" arrival="153.00" arrivalLane="1_4_1" arrivalPos="186.40" arrivalSpeed="13.00" duration="36.00" routeLength="395.15" waitingTime="0.00" waitingCount="0" stopTime="0.00" timeLoss="5.22" rerouteNo="0" devices="tripinfo_WE_10" vType="cars" speedFactor="0.92" vaporized=""/>
    <personinfo id="person_NS_w.0" depart="2.40" type="DEFAULT_PEDTYPE" speedFactor="1.12" duration="151.00" waitingTime="0.00" timeLoss="8.83" traveltime="151.00">
        <walk depart="2.50" departPos="100.00" arrival="153.50" arrivalPos="93.20" duration="151.00" routeLength="221.25" timeLoss="8.83" maxSpeed="1.56"/>
    </personinfo>
    <tripinfo id="WE_11" depart="119.50" departLane="2_1_2" departPos="5.10" departSpeed="0.00" departDelay="1.50" arrival="155.50" arrivalLane="1_4_1" arrivalPos="186.40" arrivalSpeed="13.00" duration="36.00" routeLength="395.15" waitingTime="0.00" waitingCount="0" stopTime="0.00" timeLoss="5.50" rerouteNo="0" devices="tripinfo_WE_11" vType="cars" speedFactor="1.07" vaporized=""/>
    <tripinfo id="WS_23" depart="79.00" departLane="2_1_1" departPos="5.10" departSpeed="0.00" departDelay="0.00" arrival="156.50" arrivalLane="1_3_1" arrivalPos="186.40" arrivalSpeed="13.00" duration="77.50" routeLength="379.43" waitingTime="29.00" waitingCount="3" stopTime="0.00" timeLoss="47.47" rerouteNo="0" devices="tripinfo_WS_23" vType="cars" speedFactor="1.24" vaporized=""/>
    <tripinfo id="WS_28" depart="91.00" departLane="2_1_1" departPos="5.10" departSpeed="0.00" departDelay="0.00" arrival="158.00" arrivalLane="1_3_1" arrivalPos="186.40" arrivalSpeed="13.00" duration="67.00" routeLength="379.43" waitingTime="14.50" waitingCount="4" stopTime="0.00" timeLoss="36.89" rerouteNo="0" devices="tripinfo_WS_28" vType="cars" speedFactor="0.97" vaporized=""/>
    <tripinfo id="WE_12" depart="122.00" departLane="2_1_2" departPos="5.10" departSpeed="0.00" departDelay="3.00" arrival="158.50" arrivalLane="1_4_1" arrivalPos="186.40" arrivalSpeed="13.00" duration="36.50" routeLength="395.15" waitingTime="0.00" waitingCount="0" stopTime="0.00" timeLoss="5.67" rerouteNo="0" devices="tripinfo_WE_12" vType="cars" speedFactor="1.12" vaporized=""/>
    <tripinfo id="EW_4" depart="124.00" departLane="4_1_2" departPos="5.10" departSpeed="0.00" departDelay="0.00" arrival="159.00" arrivalLane="1_2_1" arrivalPos="186.40" arrivalSpeed="13.00" duration="35.00" routeLength="395.15" waitingTime="0.00" waitingCount="0" stopTime="0.00" timeLoss="4.40" rerouteNo="0" devices="tripinfo_EW_4" vType="cars" speedFactor="0.93" vaporized=""/>
    <tripinfo id="WS_32" depart="102.00" departLane="2_1_1" departPos="5.10" departSpeed="0.00" departDelay="0.00" arrival="160.00" arrivalLane="1_3_1" arrivalPos="186.40" arrivalSpeed="13.00" duration="58.00" routeLength="379.43" waitingTime="7.00" waitingCount="5" stopTime="0.00" timeLoss="27.58" rerouteNo="0" devices="tripinfo_WS_32" vType="cars" speedFactor="0.93" vaporized=""/>
    <tripinfo id="WE_14" depart="127.00" departLane="2_1_2" departPos="5.10" departSpeed="0.00" departDelay="4.00" arrival="163.50" arrivalLane="1_4_1" arrivalPos="186.40" arrivalSpeed="13.00" duration="36.50" routeLength="395.15" waitingTime="0.00" waitingCount="0" stopTime="0.00" timeLoss="5.90" rerouteNo="0" devices="tripinfo_WE_14" vType="cars" speedFactor="1.09" vaporized=""/>
    <tripinfo id="WE_13" depart="124.50" departLane="2_1_2" departPos="5.10" departSpeed="0.00" departDelay="4.50" arrival="164.00" arrivalLane="1_4_1" arrivalPos="186.40" arrivalSpeed="11.00" duration="39.50" routeLength="395.15" waitingTime="0.00" waitingCount="0" stopTime="0.00" timeLoss="8.72" rerouteNo="0" devices="tripinfo_WE_13" vType="cars" speedFactor="1.00" vaporized=""/>
    <tripinfo id="EW_5" depart="129.00" departLane="4_1_2" departPos="5.10" departSpeed="0.00" departDelay="0.00" arrival="164.00" arrivalLane="1_2_1" arrivalPos="186.40" arrivalSpeed="13.00" duration="35.00" routeLength="395.15" waitingTime="0.00" waitingCount="0" stopTime="0.00" timeLoss="4.29" rerouteNo="0" devices="tripinfo_EW_5" vType="cars" speedFactor="1.06" vaporized=""/>
    <tripinfo id="WE_15" depart="130.00" departLane="2_1_2" departPos="5.10" departSpeed="0.00" departDelay="4.00" arrival="166.50" arrivalLane="1_4_1" arrivalPos="186.40" arrivalSpeed="13.00" duration="36.50" routeLength="395.15" waitingTime="0.00" waitingCount="0" stopTime="0.00" timeLoss="5.80" rerouteNo="0" devices="tripinfo_WE_15" vType="cars" speedFactor="1.06" vaporized=""/>
    <tripinfo id="WE_16" depart="133.00" departLane="2_1_2" departPos="5.10" departSpeed="0.00" departDelay="0.00" arrival="169.00" arrivalLane="1_4_1" arrivalPos="186.40" arrivalSpeed="13.00" duration="36.00" routeLength="395.15" waitingTime="0.00" waitingCount="0" stopTime="0.00" timeLoss="5.46" rerouteNo="0" devices="tripinfo_WE_16" vType="cars" speedFactor="1.06" vaporized=""/>
    <tripinfo id="WS_38" depart="135.00" departLane="2_1_1" departPos="5.10" departSpeed="0.00" departDelay="0.00" arrival="171.50" arrivalLane="1_3_1" arrivalPos="186.40" arrivalSpeed="13.00" duration="36.50" routeLength="379.43" waitingTime="0.00" waitingCount="0" stopTime="0.00" timeLoss="6.32" rerouteNo="0" devices="tripinfo_WS_38" vType="cars" speedFactor="0.97" vaporized=""/>
    <tripinfo id="WE_17" depart="135.50" departLane="2_1_2" departPos="5.10" departSpeed="0.00" departDelay="1.50" arrival="172.00" arrivalLane="1_4_2" arrivalPos="186.40" arrivalSpeed="13.00" duration="36.50" routeLength="395.15" waitingTime="0.00" waitingCount="0" stopTime="0.00" timeLoss="5.80" rerouteNo="0" devices="tripinfo_WE_17" vType="cars" speedFactor="1.05" vaporized=""/>
    <tripinfo id="WE_18" depart="138.50" departLane="2_1_2" departPos="5.10" departSpeed="0.00" departDelay="0.50" arrival="174.50" arrivalLane="1_4_1" arrivalPos="186.40" arrivalSpeed="13.00" duration="36.00" routeLength="395.15" waitingTime="0.00" waitingCount="0" stopTime="0.00" timeLoss="5.45" rerouteNo="0" devices="tripinfo_WE_18" vType="cars" speedFactor="0.87" vaporized=""/>
    <personinfo id="person_NS_w.3" depart="26.46" type="DEFAULT_PEDTYPE" speedFactor="1.15" duration="152.00" waitingTime="0.00" timeLoss="13.22" traveltime="152.00">
        <walk depart="26.50" departPos="100.00" arrival="178.50" arrivalPos="93.20" duration="152.00" routeLength="221.25" timeLoss="13.22" maxSpeed="1.59"/>
    </personinfo>
    <personinfo id="person_SN_e.0" depart="18.06" type="DEFAULT_PEDTYPE" speedFactor="1.15" duration="161.00" waitingTime="0.00" timeLoss="22.32" traveltime="161.00">
        <walk depart="18.50" departPos="100.00" arrival="179.50" arrivalPos="93.20" duration="161.00" routeLength="221.24" timeLoss="22.32" maxSpeed="1.60"/>
    </personinfo>
    <tripinfo id="NS_34" depart="123.00" departLane="5_1_2" departPos="5.10" departSpeed="0.00" departDelay="0.00" arrival="185.00" arrivalLane="1_3_1" arrivalPos="186.40" arrivalSpeed="13.00" duration="62.00" routeLength="395.15" waitingTime="21.00" waitingCount="1" stopTime="0.00" timeLoss="31.55" rerouteNo="0" devices="tripinfo_NS_34" vType="cars" speedFactor="1.01" vaporized=""/>
    <personinfo id="person_NE_diag.0" depart="4.77" type="DEFAULT_PEDTYPE" speedFactor="1.01" duration="183.00" waitingTime="0.00" timeLoss="19.50" traveltime="183.00">
        <walk depart="5.00" departPos="100.00" arrival="188.00" arrivalPos="93.20" duration="183.00" routeLength="228.35" timeLoss="19.50" maxSpeed="1.40"/>
    </personinfo>
    <tripinfo id="SN_31" depart="99.00" departLane="3_1_2" departPos="5.10" departSpeed="0.00" departDelay="0.00" arrival="189.50" arrivalLane="1_5_1" arrivalPos="186.40" arrivalSpeed="13.00" duration="90.50" routeLength="395.15" waitingTime="45.50" waitingCount="2" stopTime="0.00" timeLoss="59.71" rerouteNo="0" devices="tripinfo_SN_31" vType="cars" speedFactor="0.98" vaporized=""/>
    <tripinfo id="SN_37" depart="134.00" departLane="3_1_2" departPos="5.10" departSpeed="0.00" departDelay="0.00" arrival="189.50" arrivalLane="1_5_2" arrivalPos="186.40" arrivalSpeed="13.00" duration="55.50" routeLength="395.15" waitingTime="7.00" waitingCount="3" stopTime="0.00" timeLoss="24.71" rerouteNo="0" devices="tripinfo_SN_37" vType="cars" speedFactor="1.12" vaporized=""/>
    <tripinfo id="NS_43" depart="154.00" departLane="5_1_2" departPos="5.10" departSpeed="0.00" departDelay="0.00" arrival="189.50" arrivalLane="1_3_1" arrivalPos="186.40" arrivalSpeed="13.00" duration="35.50" routeLength="395.15" waitingTime="0.00" waitingCount="0" stopTime="0.00" timeLoss="4.91" rerouteNo="0" devices="tripinfo_NS_43" vType="cars" speedFactor="0.95" vaporized=""/>
    <personinfo id="person_ES_diag.1" depart="22.07" type="DEFAULT_PEDTYPE" speedFactor="1.12" duration="167.50" waitingTime="0.00" timeLoss="17.19" traveltime="167.50">
        <walk depart="22.50" departPos="100.00" arrival="190.00" arrivalPos="93.20" duration="167.50" routeLength="233.56" timeLoss="17.19" maxSpeed="1.55"/>
    </personinfo>
    <personinfo id="person_NE_diag.2" depart="20.38" type="DEFAULT_PEDTYPE" speedFactor="1.06" duration="169.50" waitingTime="0.00" timeLoss="17.22" traveltime="169.50">
        <walk depart="20.50" departPos="100.00" arrival="190.00" arrivalPos="93.20" duration="169.50" routeLength="223.30" timeLoss="17.22" maxSpeed="1.47"/>
    </personinfo>
    <tripinfo id="SN_40" depart="136.50" departLane="3_1_2" departPos="5.10" departSpeed="0.00" departDelay="1.50" arrival="191.00" arrivalLane="1_5_2" arrivalPos="186.40" arrivalSpeed="13.00" duration="54.50" routeLength="395.15" waitingTime="3.50" waitingCount="5" stopTime="0.00" timeLoss="23.75" rerouteNo="0" devices="tripinfo_SN_40" vType="cars" speedFactor="1.11" vaporized=""/>
    <tripinfo id="SN_41" depart="143.00" departLane="3_1_2" departPos="5.10" departSpeed="0.00" departDelay="0.00" arrival="191.00" arrivalLane="1_5_1" arrivalPos="186.40" arrivalSpeed="13.00" duration="48.00" routeLength="395.15" waitingTime="1.00" waitingCount="2" stopTime="0.00" timeLoss="17.25" rerouteNo="0" devices="tripinfo_SN_41" vType="cars" speedFactor="1.00" vaporized=""/>
    <personinfo id="person_NS_w.1" depart="20.11" type="DEFAULT_PEDTYPE" speedFactor="1.00" duration="171.00" waitingTime="0.00" timeLoss="11.40" traveltime="171.00">
        <walk depart="20.50" departPos="100.00" arrival="191.50" arrivalPos="93.20" duration="171.00" routeLength="221.25" timeLoss="11.40" maxSpeed="1.39"/>
    </personinfo>
    <tripinfo id="SN_42" depart="150.00" departLane="3_1_2" departPos="5.10" departSpeed="0.00" departDelay="0.00" arrival="192.50" arrivalLane="1_5_2" arrivalPos="186.40" arrivalSpeed="13.00" duration="42.50" routeLength="395.15" waitingTime="0.00" waitingCount="0" stopTime="0.00" timeLoss="11.78" rerouteNo="0" devices="tripinfo_SN_42" vType="cars" speedFactor="0.90" vaporized=""/>
    <personinfo id="person_ES_diag.0" depart="6.72" type="DEFAULT_PEDTYPE" speedFactor="1.22" duration="191.00" waitingTime="0.00" timeLoss="59.72" traveltime="191.00">
        <walk depart="7.00" departPos="100.00" arrival="198.00" arrivalPos="93.20" duration="191.00" routeLength="223.30" timeLoss="59.72" maxSpeed="1.70"/>
    </personinfo>
    <tripinfo id="NW_36" depart="132.00" departLane="5_1_1" departPos="5.10" departSpeed="0.00" departDelay="0.00" arrival="200.50" arrivalLane="1_2_1" arrivalPos="186.40" arrivalSpeed="13.00" duration="68.50" routeLength="379.43" waitingTime="21.50" waitingCount="5" stopTime="0.00" timeLoss="38.49" rerouteNo="0" devices="tripinfo_NW_36" vType="cars" speedFactor="1.25" vaporized=""/>
    <personinfo id="person_SN_e.2" depart="39.42" type="DEFAULT_PEDTYPE" speedFactor="1.04" duration="161.50" waitingTime="0.00" timeLoss="8.68" traveltime="161.50">
        <walk depart="39.50" departPos="100.00" arrival="201.00" arrivalPos="93.20" duration="161.50" routeLength="221.24" timeLoss="8.68" maxSpeed="1.45"/>
    </personinfo>
    <personinfo id="person_WE_s.2" depart="64.24" type="DEFAULT_PEDTYPE" speedFactor="1.20" duration="140.00" waitingTime="0.00" timeLoss="7.35" traveltime="140.00">
        <walk depart="64.50" departPos="100.00" arrival="204.50" arrivalPos="93.20" duration="140.00" routeLength="221.17" timeLoss="7.35" maxSpeed="1.67"/>
    </personinfo>
    <personinfo id="person_NS_w.4" depart="40.28" type="DEFAULT_PEDTYPE" speedFactor="1.02" duration="164.50" waitingTime="0.00" timeLoss="8.63" traveltime="164.50">
        <walk depart="40.50" departPos="100.00" arrival="205.00" arrivalPos="93.20" duration="164.50" routeLength="221.25" timeLoss="8.63" maxSpeed="1.42"/>
    </personinfo>