<?xml version="1.0" encoding="UTF-8"?>

<!-- generated on 2025-03-21 18:49:46 by Eclipse SUMO GUI Version 1.20.0
<configuration xmlns:xsi="http://www.w3.org/2001/XMLSchema-instance" xsi:noNamespaceSchemaLocation="http://sumo.dlr.de/xsd/sumoConfiguration.xsd">

    <input>
        <net-file value="/home/naderian/Desktop/Shakiba/MMSVCC/environment/network_model/single_intersection_pedestrian_X.net.xml"/>
        <route-files value="/home/naderian/Desktop/Shakiba/MMSVCC/environment/network_model/single_intersection.rou.xml"/>
        <additional-files value="/home/naderian/Desktop/Shakiba/MMSVCC/environment/network_model/single_intersection.add_fixed_time.xml"/>
    </input>

    <output>
        <queue-output value="/home/naderian/Desktop/Shakiba/MMSVCC/environment/simulation_data/single_intersection/queues_fixed_time_symmetric_pene_100.xml"/>
        <tripinfo-output value="/home/naderian/Desktop/Shakiba/MMSVCC/environment/simulation_data/single_intersection/tripinfo_fixed_time_symmetric_pene_100.xml"/>
    </output>

    <time>
        <begin value="0"/>
        <step-length value="0.5"/>
    </time>

    <processing>
        <waiting-time-memory value="1000"/>
    </processing>

    <report>
        <verbose value="true"/>
        <no-step-log value="true"/>
    </report>

    <traci_server>
        <remote-port value="35599"/>
    </traci_server>

    <gui_only>
        <start value="true"/>
    </gui_only>

</configuration>
-->

<tripinfos xmlns:xsi="http://www.w3.org/2001/XMLSchema-instance" xsi:noNamespaceSchemaLocation="http://sumo.dlr.de/xsd/tripinfo_file.xsd">
    <tripinfo id="SN_0" depart="0.00" departLane="3_1_2" departPos="5.10" departSpeed="0.00" departDelay="0.00" arrival="35.50" arrivalLane="1_5_1" arrivalPos="186.40" arrivalSpeed="11.82" duration="35.50" routeLength="395.15" waitingTime="0.00" waitingCount="0" stopTime="0.00" timeLoss="4.91" rerouteNo="0" devices="tripinfo_SN_0" vType="cars" speedFactor="0.95" vaporized=""/>
    <tripinfo id="NS_1" depart="1.00" departLane="5_1_2" departPos="5.10" departSpeed="0.00" departDelay="0.00" arrival="38.00" arrivalLane="1_3_1" arrivalPos="186.40" arrivalSpeed="12.76" duration="37.00" routeLength="395.15" waitingTime="0.00" waitingCount="0" stopTime="0.00" timeLoss="6.18" rerouteNo="0" devices="tripinfo_NS_1" vType="cars" speedFactor="1.05" vaporized=""/>
    <tripinfo id="SN_2" depart="5.00" departLane="3_1_2" departPos="5.10" departSpeed="0.00" departDelay="0.00" arrival="40.00" arrivalLane="1_5_1" arrivalPos="186.40" arrivalSpeed="11.68" duration="35.00" routeLength="395.15" waitingTime="0.00" waitingCount="0" stopTime="0.00" timeLoss="4.52" rerouteNo="0" devices="tripinfo_SN_2" vType="cars" speedFactor="1.06" vaporized=""/>
    <tripinfo id="SE_4" depart="9.00" departLane="3_1_1" departPos="5.10" departSpeed="0.00" departDelay="0.00" arrival="47.50" arrivalLane="1_4_1" arrivalPos="186.40" arrivalSpeed="12.55" duration="38.50" routeLength="379.42" waitingTime="0.00" waitingCount="0" stopTime="0.00" timeLoss="7.89" rerouteNo="0" devices="tripinfo_SE_4" vType="cars" speedFactor="0.85" vaporized=""/>
    <tripinfo id="NS_5" depart="11.00" departLane="5_1_2" departPos="5.10" departSpeed="0.00" departDelay="0.00" arrival="48.00" arrivalLane="1_3_1" arrivalPos="186.40" arrivalSpeed="11.64" duration="37.00" routeLength="395.15" waitingTime="0.00" waitingCount="0" stopTime="0.00" timeLoss="6.25" rerouteNo="0" devices="tripinfo_NS_5" vType="cars" speedFactor="1.09" vaporized=""/>
    <tripinfo id="EN_10" depart="20.00" departLane="4_1_1" departPos="5.10" departSpeed="0.00" departDelay="0.00" arrival="59.00" arrivalLane="1_5_1" arrivalPos="186.40" arrivalSpeed="12.58" duration="39.00" routeLength="379.42" waitingTime="0.00" waitingCount="0" stopTime="0.00" timeLoss="8.72" rerouteNo="0" devices="tripinfo_EN_10" vType="cars" speedFactor="0.92" vaporized=""/>
    <tripinfo id="WE_1" depart="12.00" departLane="2_1_2" departPos="5.10" departSpeed="0.00" departDelay="0.00" arrival="73.50" arrivalLane="1_4_1" arrivalPos="186.40" arrivalSpeed="12.79" duration="61.50" routeLength="395.15" waitingTime="22.00" waitingCount="1" stopTime="0.00" timeLoss="30.85" rerouteNo="0" devices="tripinfo_WE_1" vType="cars" speedFactor="1.14" vaporized=""/>
    <tripinfo id="EW_0" depart="22.00" departLane="4_1_2" departPos="5.10" departSpeed="0.00" departDelay="0.00" arrival="73.50" arrivalLane="1_2_1" arrivalPos="186.40" arrivalSpeed="12.75" duration="51.50" routeLength="395.15" waitingTime="12.00" waitingCount="1" stopTime="0.00" timeLoss="20.73" rerouteNo="0" devices="tripinfo_EW_0" vType="cars" speedFactor="1.13" vaporized=""/>
    <tripinfo id="WE_0" depart="1.00" departLane="2_1_2" departPos="5.10" departSpeed="0.00" departDelay="0.00" arrival="75.50" arrivalLane="1_4_1" arrivalPos="186.40" arrivalSpeed="12.42" duration="74.50" routeLength="395.15" waitingTime="33.00" waitingCount="1" stopTime="0.00" timeLoss="44.08" rerouteNo="0" devices="tripinfo_WE_0" vType="cars" speedFactor="1.09" vaporized=""/>
    <tripinfo id="WS_3" depart="7.00" departLane="2_1_1" departPos="5.10" departSpeed="0.00" departDelay="0.00" arrival="76.00" arrivalLane="1_3_1" arrivalPos="186.40" arrivalSpeed="12.81" duration="69.00" routeLength="379.43" waitingTime="25.00" waitingCount="2" stopTime="0.00" timeLoss="38.46" rerouteNo="0" devices="tripinfo_WS_3" vType="cars" speedFactor="0.93" vaporized=""/>
    <tripinfo id="WE_2" depart="22.00" departLane="2_1_2" departPos="5.10" departSpeed="0.00" departDelay="0.00" arrival="76.50" arrivalLane="1_4_2" arrivalPos="186.40" arrivalSpeed="12.64" duration="54.50" routeLength="395.15" waitingTime="10.00" waitingCount="1" stopTime="0.00" timeLoss="23.67" rerouteNo="0" devices="tripinfo_WE_2" vType="cars" speedFactor="0.98" vaporized=""/>
    <tripinfo id="WE_3" depart="27.00" departLane="2_1_2" departPos="5.10" departSpeed="0.00" departDelay="0.00" arrival="78.50" arrivalLane="1_4_2" arrivalPos="186.40" arrivalSpeed="11.55" duration="51.50" routeLength="395.15" waitingTime="7.00" waitingCount="1" stopTime="0.00" timeLoss="20.93" rerouteNo="0" devices="tripinfo_WE_3" vType="cars" speedFactor="0.95" vaporized=""/>
    <tripinfo id="WS_6" depart="14.00" departLane="2_1_1" departPos="5.10" departSpeed="0.00" departDelay="0.00" arrival="79.00" arrivalLane="1_3_1" arrivalPos="186.40" arrivalSpeed="12.08" duration="65.00" routeLength="379.43" waitingTime="19.00" waitingCount="1" stopTime="0.00" timeLoss="34.97" rerouteNo="0" devices="tripinfo_WS_6" vType="cars" speedFactor="0.96" vaporized=""/>
    <tripinfo id="EW_1" depart="42.00" departLane="4_1_2" departPos="5.10" departSpeed="0.00" departDelay="0.00" arrival="79.00" arrivalLane="1_2_1" arrivalPos="186.40" arrivalSpeed="11.73" duration="37.00" routeLength="395.15" waitingTime="0.00" waitingCount="0" stopTime="0.00" timeLoss="6.53" rerouteNo="0" devices="tripinfo_EW_1" vType="cars" speedFactor="1.06" vaporized=""/>
    <tripinfo id="EW_2" depart="46.00" departLane="4_1_2" departPos="5.10" departSpeed="0.00" departDelay="0.00" arrival="81.00" arrivalLane="1_2_1" arrivalPos="186.40" arrivalSpeed="12.33" duration="35.00" routeLength="395.15" waitingTime="0.00" waitingCount="0" stopTime="0.00" timeLoss="4.40" rerouteNo="0" devices="tripinfo_EW_2" vType="cars" speedFactor="0.99" vaporized=""/>
    <tripinfo id="WE_4" depart="50.00" departLane="2_1_2" departPos="5.10" departSpeed="0.00" departDelay="0.00" arrival="85.50" arrivalLane="1_4_1" arrivalPos="186.40" arrivalSpeed="11.60" duration="35.50" routeLength="395.15" waitingTime="0.00" waitingCount="0" stopTime="0.00" timeLoss="5.07" rerouteNo="0" devices="tripinfo_WE_4" vType="cars" speedFactor="0.94" vaporized=""/>
    <tripinfo id="EW_3" depart="59.00" departLane="4_1_2" departPos="5.10" departSpeed="0.00" departDelay="0.00" arrival="95.00" arrivalLane="1_2_1" arrivalPos="186.40" arrivalSpeed="12.39" duration="36.00" routeLength="395.15" waitingTime="0.00" waitingCount="0" stopTime="0.00" timeLoss="5.25" rerouteNo="0" devices="tripinfo_EW_3" vType="cars" speedFactor="1.15" vaporized=""/>
    <tripinfo id="EW_4" depart="62.00" departLane="4_1_2" departPos="5.10" departSpeed="0.00" departDelay="0.00" arrival="99.00" arrivalLane="1_2_1" arrivalPos="186.40" arrivalSpeed="11.89" duration="37.00" routeLength="395.15" waitingTime="0.00" waitingCount="0" stopTime="0.00" timeLoss="6.49" rerouteNo="0" devices="tripinfo_EW_4" vType="cars" speedFactor="1.15" vaporized=""/>
    <tripinfo id="WN_7" depart="16.00" departLane="2_1_3" departPos="5.10" departSpeed="0.00" departDelay="0.00" arrival="111.50" arrivalLane="1_5_2" arrivalPos="186.40" arrivalSpeed="12.41" duration="95.50" routeLength="392.22" waitingTime="54.00" waitingCount="1" stopTime="0.00" timeLoss="64.39" rerouteNo="0" devices="tripinfo_WN_7" vType="cars" speedFactor="0.92" vaporized=""/>
    <tripinfo id="ES_24" depart="73.00" departLane="4_1_3" departPos="5.10" departSpeed="0.00" departDelay="0.00" arrival="111.50" arrivalLane="1_3_2" arrivalPos="186.40" arrivalSpeed="12.49" duration="38.50" routeLength="392.22" waitingTime="0.00" waitingCount="0" stopTime="0.00" timeLoss="7.73" rerouteNo="0" devices="tripinfo_ES_24" vType="cars" speedFactor="1.15" vaporized=""/>
    <tripinfo id="NS_8" depart="17.00" departLane="5_1_2" departPos="5.10" departSpeed="0.00" departDelay="0.00" arrival="129.00" arrivalLane="1_3_1" arrivalPos="186.40" arrivalSpeed="12.63" duration="112.00" routeLength="395.15" waitingTime="70.00" waitingCount="1" stopTime="0.00" timeLoss="81.21" rerouteNo="0" devices="tripinfo_NS_8" vType="cars" speedFactor="1.12" vaporized=""/>
    <tripinfo id="SN_9" depart="18.00" departLane="3_1_2" departPos="5.10" departSpeed="0.00" departDelay="0.00" arrival="129.00" arrivalLane="1_5_1" arrivalPos="186.40" arrivalSpeed="12.27" duration="111.00" routeLength="395.15" waitingTime="70.00" waitingCount="1" stopTime="0.00" timeLoss="80.17" rerouteNo="0" devices="tripinfo_SN_9" vType="cars" speedFactor="0.91" vaporized=""/>
    <tripinfo id="SN_12" depart="25.00" departLane="3_1_2" departPos="5.10" departSpeed="0.00" departDelay="0.00" arrival="129.50" arrivalLane="1_5_2" arrivalPos="186.40" arrivalSpeed="12.39" duration="104.50" routeLength="395.15" waitingTime="62.50" waitingCount="1" stopTime="0.00" timeLoss="73.75" rerouteNo="0" devices="tripinfo_SN_12" vType="cars" speedFactor="0.94" vaporized=""/>
    <tripinfo id="NS_11" depart="20.00" departLane="5_1_2" departPos="5.10" departSpeed="0.00" departDelay="0.00" arrival="130.00" arrivalLane="1_3_2" arrivalPos="186.40" arrivalSpeed="12.40" duration="110.00" routeLength="395.15" waitingTime="67.00" waitingCount="1" stopTime="0.00" timeLoss="79.36" rerouteNo="0" devices="tripinfo_NS_11" vType="cars" speedFactor="0.87" vaporized=""/>
    <tripinfo id="NS_13" depart="26.00" departLane="5_1_2" departPos="5.10" departSpeed="0.00" departDelay="0.00" arrival="130.50" arrivalLane="1_3_1" arrivalPos="186.40" arrivalSpeed="12.80" duration="104.50" routeLength="395.15" waitingTime="60.50" waitingCount="1" stopTime="0.00" timeLoss="74.02" rerouteNo="0" devices="tripinfo_NS_13" vType="cars" speedFactor="1.00" vaporized=""/>
    <tripinfo id="SN_15" depart="29.00" departLane="3_1_2" departPos="5.10" departSpeed="0.00" departDelay="0.00" arrival="131.00" arrivalLane="1_5_1" arrivalPos="186.40" arrivalSpeed="11.78" duration="102.00" routeLength="395.15" waitingTime="58.50" waitingCount="1" stopTime="0.00" timeLoss="71.32" rerouteNo="0" devices="tripinfo_SN_15" vType="cars" speedFactor="1.09" vaporized=""/>
    <tripinfo id="SN_18" depart="36.00" departLane="3_1_2" departPos="5.10" departSpeed="0.00" departDelay="0.00" arrival="131.00" arrivalLane="1_5_2" arrivalPos="186.40" arrivalSpeed="12.07" duration="95.00" routeLength="395.15" waitingTime="49.50" waitingCount="1" stopTime="0.00" timeLoss="64.53" rerouteNo="0" devices="tripinfo_SN_18" vType="cars" speedFactor="1.07" vaporized=""/>
    <tripinfo id="NS_14" depart="29.00" departLane="5_1_2" departPos="5.10" departSpeed="0.00" departDelay="2.00" arrival="132.00" arrivalLane="1_3_2" arrivalPos="186.40" arrivalSpeed="11.92" duration="103.00" routeLength="395.15" waitingTime="56.50" waitingCount="1" stopTime="0.00" timeLoss="72.23" rerouteNo="0" devices="tripinfo_NS_14" vType="cars" speedFactor="0.96" vaporized=""/>
    <tripinfo id="NS_16" depart="32.00" departLane="5_1_2" departPos="5.10" departSpeed="0.00" departDelay="2.00" arrival="132.50" arrivalLane="1_3_1" arrivalPos="186.40" arrivalSpeed="11.87" duration="100.50" routeLength="395.15" waitingTime="54.50" waitingCount="1" stopTime="0.00" timeLoss="69.90" rerouteNo="0" devices="tripinfo_NS_16" vType="cars" speedFactor="0.85" vaporized=""/>
    <tripinfo id="SN_20" depart="40.00" departLane="3_1_2" departPos="5.10" departSpeed="0.00" departDelay="0.00" arrival="133.00" arrivalLane="1_5_2" arrivalPos="186.40" arrivalSpeed="11.96" duration="93.00" routeLength="395.15" waitingTime="46.50" waitingCount="1" stopTime="0.00" timeLoss="62.40" rerouteNo="0" devices="tripinfo_SN_20" vType="cars" speedFactor="0.97" vaporized=""/>
    <tripinfo id="SN_17" depart="33.00" departLane="3_1_2" departPos="5.10" departSpeed="0.00" departDelay="0.00" arrival="133.50" arrivalLane="1_5_1" arrivalPos="186.40" arrivalSpeed="12.05" duration="100.50" routeLength="395.15" waitingTime="53.00" waitingCount="1" stopTime="0.00" timeLoss="69.65" rerouteNo="0" devices="tripinfo_SN_17" vType="cars" speedFactor="1.22" vaporized=""/>
    <tripinfo id="NS_22" depart="66.00" departLane="5_1_2" departPos="5.10" departSpeed="0.00" departDelay="0.00" arrival="133.50" arrivalLane="1_3_2" arrivalPos="186.40" arrivalSpeed="11.83" duration="67.50" routeLength="395.15" waitingTime="21.00" waitingCount="1" stopTime="0.00" timeLoss="37.10" rerouteNo="0" devices="tripinfo_NS_22" vType="cars" speedFactor="0.96" vaporized=""/>
    <tripinfo id="SN_25" depart="74.00" departLane="3_1_2" departPos="5.10" departSpeed="0.00" departDelay="0.00" arrival="135.00" arrivalLane="1_5_2" arrivalPos="186.40" arrivalSpeed="11.53" duration="61.00" routeLength="395.15" waitingTime="13.00" waitingCount="1" stopTime="0.00" timeLoss="30.25" rerouteNo="0" devices="tripinfo_SN_25" vType="cars" speedFactor="0.94" vaporized=""/>
    <tripinfo id="NS_26" depart="75.00" departLane="5_1_2" departPos="5.10" departSpeed="0.00" departDelay="0.00" arrival="135.50" arrivalLane="1_3_2" arrivalPos="186.40" arrivalSpeed="12.92" duration="60.50" routeLength="395.15" waitingTime="12.50" waitingCount="1" stopTime="0.00" timeLoss="29.87" rerouteNo="0" devices="tripinfo_NS_26" vType="cars" speedFactor="1.27" vaporized=""/>
    <tripinfo id="SN_28" depart="81.00" departLane="3_1_2" departPos="5.10" departSpeed="0.00" departDelay="0.00" arrival="136.50" arrivalLane="1_5_2" arrivalPos="186.40" arrivalSpeed="12.73" duration="55.50" routeLength="395.15" waitingTime="9.00" waitingCount="1" stopTime="0.00" timeLoss="25.07" rerouteNo="0" devices="tripinfo_SN_28" vType="cars" speedFactor="1.06" vaporized=""/>
    <tripinfo id="NS_29" depart="83.00" departLane="5_1_2" departPos="5.10" departSpeed="0.00" departDelay="0.00" arrival="137.50" arrivalLane="1_3_2" arrivalPos="186.40" arrivalSpeed="12.81" duration="54.50" routeLength="395.15" waitingTime="7.00" waitingCount="1" stopTime="0.00" timeLoss="23.74" rerouteNo="0" devices="tripinfo_NS_29" vType="cars" speedFactor="1.14" vaporized=""/>
    <tripinfo id="SN_31" depart="86.50" departLane="3_1_2" departPos="5.10" departSpeed="0.00" departDelay="2.50" arrival="139.00" arrivalLane="1_5_2" arrivalPos="186.40" arrivalSpeed="12.66" duration="52.50" routeLength="395.15" waitingTime="3.50" waitingCount="2" stopTime="0.00" timeLoss="21.73" rerouteNo="0" devices="tripinfo_SN_31" vType="cars" speedFactor="1.10" vaporized=""/>
    <tripinfo id="NS_37" depart="105.00" departLane="5_1_2" departPos="5.10" departSpeed="0.00" departDelay="0.00" arrival="140.00" arrivalLane="1_3_1" arrivalPos="186.40" arrivalSpeed="12.86" duration="35.00" routeLength="395.15" waitingTime="0.00" waitingCount="0" stopTime="0.00" timeLoss="4.29" rerouteNo="0" devices="tripinfo_NS_37" vType="cars" speedFactor="0.91" vaporized=""/>
    <tripinfo id="SN_34" depart="97.00" departLane="3_1_2" departPos="5.10" departSpeed="0.00" departDelay="0.00" arrival="140.50" arrivalLane="1_5_2" arrivalPos="186.40" arrivalSpeed="11.81" duration="43.50" routeLength="395.15" waitingTime="0.00" waitingCount="0" stopTime="0.00" timeLoss="12.95" rerouteNo="0" devices="tripinfo_SN_34" vType="cars" speedFactor="1.03" vaporized=""/>
    <tripinfo id="SN_38" depart="107.00" departLane="3_1_2" departPos="5.10" departSpeed="0.00" departDelay="0.00" arrival="142.50" arrivalLane="1_5_1" arrivalPos="186.40" arrivalSpeed="12.06" duration="35.50" routeLength="395.15" waitingTime="0.00" waitingCount="0" stopTime="0.00" timeLoss="4.97" rerouteNo="0" devices="tripinfo_SN_38" vType="cars" speedFactor="0.89" vaporized=""/>
    <tripinfo id="NS_32" depart="87.00" departLane="5_1_2" departPos="5.10" departSpeed="0.00" departDelay="0.00" arrival="144.00" arrivalLane="1_3_2" arrivalPos="186.40" arrivalSpeed="12.98" duration="57.00" routeLength="395.15" waitingTime="3.50" waitingCount="1" stopTime="0.00" timeLoss="26.50" rerouteNo="0" devices="tripinfo_NS_32" vType="cars" speedFactor="0.90" vaporized=""/>
    <tripinfo id="SN_33" depart="90.00" departLane="3_1_2" departPos="5.10" departSpeed="0.00" departDelay="0.00" arrival="147.00" arrivalLane="1_5_2" arrivalPos="186.40" arrivalSpeed="12.61" duration="57.00" routeLength="395.15" waitingTime="0.00" waitingCount="0" stopTime="0.00" timeLoss="26.47" rerouteNo="0" devices="tripinfo_SN_33" vType="cars" speedFactor="1.03" vaporized=""/>
    <tripinfo id="NS_41" depart="111.00" departLane="5_1_2" departPos="5.10" departSpeed="0.00" departDelay="0.00" arrival="148.00" arrivalLane="1_3_2" arrivalPos="186.40" arrivalSpeed="11.67" duration="37.00" routeLength="395.15" waitingTime="0.00" waitingCount="0" stopTime="0.00" timeLoss="6.56" rerouteNo="0" devices="tripinfo_NS_41" vType="cars" speedFactor="0.87" vaporized=""/>
    <tripinfo id="SN_40" depart="110.00" departLane="3_1_2" departPos="5.10" departSpeed="0.00" departDelay="0.00" arrival="149.00" arrivalLane="1_5_1" arrivalPos="186.40" arrivalSpeed="11.72" duration="39.00" routeLength="395.15" waitingTime="0.00" waitingCount="0" stopTime="0.00" timeLoss="8.24" rerouteNo="0" devices="tripinfo_SN_40" vType="cars" speedFactor="1.01" vaporized=""/>
    <tripinfo id="SE_19" depart="39.00" departLane="3_1_1" departPos="5.10" departSpeed="0.00" departDelay="0.00" arrival="152.50" arrivalLane="1_4_1" arrivalPos="186.40" arrivalSpeed="12.26" duration="113.50" routeLength="379.42" waitingTime="66.00" waitingCount="3" stopTime="0.00" timeLoss="83.48" rerouteNo="0" devices="tripinfo_SE_19" vType="cars" speedFactor="1.06" vaporized=""/>
    <tripinfo id="SN_30" depart="83.50" departLane="3_1_2" departPos="5.10" departSpeed="0.00" departDelay="0.50" arrival="153.00" arrivalLane="1_5_2" arrivalPos="186.40" arrivalSpeed="12.31" duration="69.50" routeLength="395.15" waitingTime="12.50" waitingCount="2" stopTime="0.00" timeLoss="38.78" rerouteNo="0" devices="tripinfo_SN_30" vType="cars" speedFactor="1.16" vaporized=""/>
    <tripinfo id="SE_27" depart="78.00" departLane="3_1_1" departPos="5.10" departSpeed="0.00" departDelay="0.00" arrival="164.50" arrivalLane="1_4_1" arrivalPos="186.40" arrivalSpeed="11.56" duration="86.50" routeLength="379.42" waitingTime="30.00" waitingCount="3" stopTime="0.00" timeLoss="56.20" rerouteNo="0" devices="tripinfo_SE_27" vType="cars" speedFactor="0.93" vaporized=""/>
    <tripinfo id="NW_21" depart="53.00" departLane="5_1_1" departPos="5.10" departSpeed="0.00" departDelay="0.00" arrival="165.00" arrivalLane="1_2_1" arrivalPos="186.40" arrivalSpeed="11.95" duration="112.00" routeLength="379.43" waitingTime="63.50" waitingCount="2" stopTime="0.00" timeLoss="81.94" rerouteNo="0" devices="tripinfo_NW_21" vType="cars" speedFactor="1.01" vaporized=""/>
    <tripinfo id="SW_43" depart="122.00" departLane="3_1_3" departPos="5.10" departSpeed="0.00" departDelay="0.00" arrival="166.00" arrivalLane="1_2_2" arrivalPos="186.40" arrivalSpeed="12.15" duration="44.00" routeLength="392.22" waitingTime="2.00" waitingCount="1" stopTime="0.00" timeLoss="13.25" rerouteNo="0" devices="tripinfo_SW_43" vType="cars" speedFactor="0.99" vaporized=""/>
    <tripinfo id="NW_23" depart="69.00" departLane="5_1_1" departPos="5.10" departSpeed="0.00" departDelay="0.00" arrival="167.00" arrivalLane="1_2_1" arrivalPos="186.40" arrivalSpeed="12.45" duration="98.00" routeLength="379.43" waitingTime="47.00" waitingCount="2" stopTime="0.00" timeLoss="67.98" rerouteNo="0" devices="tripinfo_NW_23" vType="cars" speedFactor="0.89" vaporized=""/>
    <personinfo id="person_WE_s.0" depart="0.96" type="DEFAULT_PEDTYPE" speedFactor="0.98" duration="174.00" waitingTime="0.00" timeLoss="10.71" traveltime="174.00">
        <walk depart="1.00" departPos="100.00" arrival="175.00" arrivalPos="93.20" duration="174.00" routeLength="221.17" timeLoss="10.71" maxSpeed="1.35"/>
    </personinfo>
    <personinfo id="person_SW_diag.3" depart="23.23" type="DEFAULT_PEDTYPE" speedFactor="1.22" duration="157.50" waitingTime="0.00" timeLoss="25.18" traveltime="157.50">
        <walk depart="23.50" departPos="100.00" arrival="181.00" arrivalPos="93.20" duration="157.50" routeLength="223.30" timeLoss="25.18" maxSpeed="1.69"/>
    </personinfo>
    <tripinfo id="WE_6" depart="78.00" departLane="2_1_2" departPos="5.10" departSpeed="0.00" departDelay="1.00" arrival="182.00" arrivalLane="1_4_1" arrivalPos="186.40" arrivalSpeed="12.41" duration="104.00" routeLength="395.15" waitingTime="62.50" waitingCount="1" stopTime="0.00" timeLoss="73.55" rerouteNo="0" devices="tripinfo_WE_6" vType="cars" speedFactor="1.05" vaporized=""/>
    <tripinfo id="EW_6" depart="92.00" departLane="4_1_2" departPos="5.10" departSpeed="0.00" departDelay="0.00" arrival="182.00" arrivalLane="1_2_2" arrivalPos="186.40" arrivalSpeed="11.60" duration="90.00" routeLength="395.15" waitingTime="49.00" waitingCount="1" stopTime="0.00" timeLoss="59.39" rerouteNo="0" devices="tripinfo_EW_6" vType="cars" speedFactor="1.04" vaporized=""/>
    <tripinfo id="EW_5" depart="76.00" departLane="4_1_2" departPos="5.10" departSpeed="0.00" departDelay="0.00" arrival="182.50" arrivalLane="1_2_1" arrivalPos="186.40" arrivalSpeed="12.63" duration="106.50" routeLength="395.15" waitingTime="65.00" waitingCount="1" stopTime="0.00" timeLoss="75.70" rerouteNo="0" devices="tripinfo_EW_5" vType="cars" speedFactor="0.83" vaporized=""/>
    <tripinfo id="WE_5" depart="75.00" departLane="2_1_2" departPos="5.10" departSpeed="0.00" departDelay="0.00" arrival="184.00" arrivalLane="1_4_1" arrivalPos="186.40" arrivalSpeed="11.87" duration="109.00" routeLength="395.15" waitingTime="66.50" waitingCount="1" stopTime="0.00" timeLoss="78.36" rerouteNo="0" devices="tripinfo_WE_5" vType="cars" speedFactor="0.91" vaporized=""/>
    <tripinfo id="WE_8" depart="92.00" departLane="2_1_2" departPos="5.10" departSpeed="0.00" departDelay="0.00" arrival="184.00" arrivalLane="1_4_2" arrivalPos="186.40" arrivalSpeed="12.57" duration="92.00" routeLength="395.15" waitingTime="48.50" waitingCount="1" stopTime="0.00" timeLoss="61.30" rerouteNo="0" devices="tripinfo_WE_8" vType="cars" speedFactor="0.85" vaporized=""/>
    <tripinfo id="EW_7" depart="111.00" departLane="4_1_2" departPos="5.10" departSpeed="0.00" departDelay="0.00" arrival="184.50" arrivalLane="1_2_2" arrivalPos="186.40" arrivalSpeed="11.60" duration="73.50" routeLength="395.15" waitingTime="29.00" waitingCount="1" stopTime="0.00" timeLoss="42.82" rerouteNo="0" devices="tripinfo_EW_7" vType="cars" speedFactor="0.97" vaporized=""/>
    <tripinfo id="WE_7" depart="89.00" departLane="2_1_2" departPos="5.10" departSpeed="0.00" departDelay="0.00" arrival="186.00" arrivalLane="1_4_2" arrivalPos="186.40" arrivalSpeed="12.70" duration="97.00" routeLength="395.15" waitingTime="51.00" waitingCount="1" stopTime="0.00" timeLoss="66.36" rerouteNo="0" devices="tripinfo_WE_7" vType="cars" speedFactor="0.91" vaporized=""/>
    <personinfo id="person_SW_diag.2" depart="16.50" type="DEFAULT_PEDTYPE" speedFactor="1.16" duration="169.50" waitingTime="0.00" timeLoss="30.34" traveltime="169.50">
        <walk depart="17.00" departPos="100.00" arrival="186.50" arrivalPos="93.20" duration="169.50" routeLength="223.30" timeLoss="30.34" maxSpeed="1.60"/>
    </personinfo>
    <tripinfo id="EW_8" depart="123.00" departLane="4_1_2" departPos="5.10" departSpeed="0.00" departDelay="0.00" arrival="187.00" arrivalLane="1_2_1" arrivalPos="186.40" arrivalSpeed="12.84" duration="64.00" routeLength="395.15" waitingTime="18.00" waitingCount="1" stopTime="0.00" timeLoss="33.22" rerouteNo="0" devices="tripinfo_EW_8" vType="cars" speedFactor="0.91" vaporized=""/>
    <personinfo id="person_ES_diag.4" depart="3.50" type="DEFAULT_PEDTYPE" speedFactor="1.17" duration="184.00" waitingTime="0.00" timeLoss="40.86" traveltime="184.00">
        <walk depart="3.50" departPos="100.00" arrival="187.50" arrivalPos="93.20" duration="184.00" routeLength="233.56" timeLoss="40.86" maxSpeed="1.63"/>
    </personinfo>
    <tripinfo id="WE_9" depart="106.00" departLane="2_1_2" departPos="5.10" departSpeed="0.00" departDelay="0.00" arrival="188.00" arrivalLane="1_4_2" arrivalPos="186.40" arrivalSpeed="11.54" duration="82.00" routeLength="395.15" waitingTime="34.50" waitingCount="1" stopTime="0.00" timeLoss="51.23" rerouteNo="0" devices="tripinfo_WE_9" vType="cars" speedFactor="0.98" vaporized=""/>
    <tripinfo id="WE_10" depart="116.00" departLane="2_1_2" departPos="5.10" departSpeed="0.00" departDelay="0.00" arrival="188.00" arrivalLane="1_4_1" arrivalPos="186.40" arrivalSpeed="11.89" duration="72.00" routeLength="395.15" waitingTime="20.50" waitingCount="1" stopTime="0.00" timeLoss="41.40" rerouteNo="0" devices="tripinfo_WE_10" vType="cars" speedFactor="1.18" vaporized=""/>
    <tripinfo id="EW_10" depart="144.00" departLane="4_1_2" departPos="5.10" departSpeed="0.00" departDelay="0.00" arrival="188.50" arrivalLane="1_2_2" arrivalPos="186.40" arrivalSpeed="12.85" duration="44.50" routeLength="395.15" waitingTime="0.00" waitingCount="0" stopTime="0.00" timeLoss="13.88" rerouteNo="0" devices="tripinfo_EW_10" vType="cars" speedFactor="1.09" vaporized=""/>
    <tripinfo id="WE_11" depart="118.50" departLane="2_1_2" departPos="5.10" departSpeed="0.00" departDelay="1.50" arrival="189.50" arrivalLane="1_4_2" arrivalPos="186.40" arrivalSpeed="12.88" duration="71.00" routeLength="395.15" waitingTime="21.00" waitingCount="1" stopTime="0.00" timeLoss="40.41" rerouteNo="0" devices="tripinfo_WE_11" vType="cars" speedFactor="1.04" vaporized=""/>
    <tripinfo id="WE_13" depart="125.00" departLane="2_1_2" departPos="5.10" departSpeed="0.00" departDelay="6.00" arrival="190.00" arrivalLane="1_4_1" arrivalPos="186.40" arrivalSpeed="12.94" duration="65.00" routeLength="395.15" waitingTime="14.50" waitingCount="2" stopTime="0.00" timeLoss="34.21" rerouteNo="0" devices="tripinfo_WE_13" vType="cars" speedFactor="0.93" vaporized=""/>
    <tripinfo id="WE_12" depart="122.00" departLane="2_1_2" departPos="5.10" departSpeed="0.00" departDelay="4.00" arrival="191.50" arrivalLane="1_4_2" arrivalPos="186.40" arrivalSpeed="12.14" duration="69.50" routeLength="395.15" waitingTime="19.50" waitingCount="1" stopTime="0.00" timeLoss="38.75" rerouteNo="0" devices="tripinfo_WE_12" vType="cars" speedFactor="0.95" vaporized=""/>
    <tripinfo id="EW_11" depart="146.50" departLane="4_1_2" departPos="5.10" departSpeed="0.00" departDelay="1.50" arrival="192.00" arrivalLane="1_2_2" arrivalPos="186.40" arrivalSpeed="11.69" duration="45.50" routeLength="395.15" waitingTime="0.00" waitingCount="0" stopTime="0.00" timeLoss="14.88" rerouteNo="0" devices="tripinfo_EW_11" vType="cars" speedFactor="0.99" vaporized=""/>
    <tripinfo id="WE_14" depart="127.50" departLane="2_1_2" departPos="5.10" departSpeed="0.00" departDelay="5.50" arrival="193.00" arrivalLane="1_4_1" arrivalPos="186.40" arrivalSpeed="11.66" duration="65.50" routeLength="395.15" waitingTime="17.00" waitingCount="2" stopTime="0.00" timeLoss="34.99" rerouteNo="0" devices="tripinfo_WE_14" vType="cars" speedFactor="0.92" vaporized=""/>
    <tripinfo id="WE_15" depart="130.00" departLane="2_1_2" departPos="5.10" departSpeed="0.00" departDelay="5.00" arrival="195.00" arrivalLane="1_4_2" arrivalPos="186.40" arrivalSpeed="11.60" duration="65.00" routeLength="395.15" waitingTime="8.00" waitingCount="2" stopTime="0.00" timeLoss="34.32" rerouteNo="0" devices="tripinfo_WE_15" vType="cars" speedFactor="1.21" vaporized=""/>
    <tripinfo id="EW_9" depart="128.00" departLane="4_1_2" departPos="5.10" departSpeed="0.00" departDelay="0.00" arrival="195.00" arrivalLane="1_2_2" arrivalPos="186.40" arrivalSpeed="11.56" duration="67.00" routeLength="395.15" waitingTime="12.50" waitingCount="2" stopTime="0.00" timeLoss="36.47" rerouteNo="0" devices="tripinfo_EW_9" vType="cars" speedFactor="1.14" vaporized=""/>
    <personinfo id="person_NS_w.1" depart="10.08" type="DEFAULT_PEDTYPE" speedFactor="1.07" duration="185.00" waitingTime="0.00" timeLoss="36.12" traveltime="185.00">
        <walk depart="10.50" departPos="100.00" arrival="195.50" arrivalPos="93.20" duration="185.00" routeLength="221.25" timeLoss="36.12" maxSpeed="1.49"/>
    </personinfo>
    <personinfo id="person_SN_e.2" depart="55.71" type="DEFAULT_PEDTYPE" speedFactor="1.22" duration="140.00" waitingTime="0.00" timeLoss="9.94" traveltime="140.00">
        <walk depart="56.00" departPos="100.00" arrival="196.00" arrivalPos="93.20" duration="140.00" routeLength="221.24" timeLoss="9.94" maxSpeed="1.70"/>
    </personinfo>
    <personinfo id="person_ES_diag.0" depart="0.68" type="DEFAULT_PEDTYPE" speedFactor="1.05" duration="197.00" waitingTime="0.00" timeLoss="37.06" traveltime="197.00">