<?xml version="1.0" encoding="UTF-8"?>

<!-- generated on 2025-06-27 16:33:45 by Eclipse SUMO GUI Version 1.22.0
<sumoConfiguration xmlns:xsi="http://www.w3.org/2001/XMLSchema-instance" xsi:noNamespaceSchemaLocation="http://sumo.dlr.de/xsd/sumoConfiguration.xsd">

    <input>
        <net-file value="/home/naderian/Desktop/Shakiba/MMSVCC/environment/network_model/single_intersection_Concurrent_(delayed_turn).net.xml"/>
        <route-files value="/home/naderian/Desktop/Shakiba/MMSVCC/environment/network_model/single_intersection.rou.xml"/>
        <additional-files value="/home/naderian/Desktop/Shakiba/MMSVCC/environment/network_model/single_intersection.add_actuated_(delayed_turn).xml"/>
    </input>

    <output>
        <queue-output value="/home/naderian/Desktop/Shakiba/MMSVCC/environment/simulation_data/single_intersection/queues_actuated_symmetric_pene_100.xml"/>
        <tripinfo-output value="/home/naderian/Desktop/Shakiba/MMSVCC/environment/simulation_data/single_intersection/tripinfo_actuated_symmetric_pene_100.xml"/>
    </output>

    <time>
        <begin value="0"/>
        <step-length value="0.5"/>
    </time>

    <processing>
        <waiting-time-memory value="1000"/>
    </processing>

    <report>
        <verbose value="true"/>
        <no-step-log value="true"/>
    </report>

    <ssm_device>
        <device.ssm.file value="/home/naderian/Desktop/Shakiba/MMSVCC/environment/simulation_data/single_intersection/SSMinfo_actuated_pene_100.xml"/>
    </ssm_device>

    <traci_server>
        <remote-port value="52177"/>
    </traci_server>

    <gui_only>
        <start value="true"/>
    </gui_only>

</sumoConfiguration>
-->

<tripinfos xmlns:xsi="http://www.w3.org/2001/XMLSchema-instance" xsi:noNamespaceSchemaLocation="http://sumo.dlr.de/xsd/tripinfo_file.xsd">
    <tripinfo id="SN_0" depart="0.00" departLane="3_1_2" departPos="5.10" departSpeed="0.00" departDelay="0.00" arrival="35.50" arrivalLane="1_5_2" arrivalPos="186.40" arrivalSpeed="12.18" duration="35.50" routeLength="395.15" waitingTime="0.00" waitingCount="0" stopTime="0.00" timeLoss="5.06" rerouteNo="0" devices="tripinfo_SN_0 ssm_SN_0" vType="cars" speedFactor="1.02" vaporized=""/>
    <tripinfo id="NS_1" depart="1.00" departLane="5_1_2" departPos="5.10" departSpeed="0.00" departDelay="0.00" arrival="36.50" arrivalLane="1_3_2" arrivalPos="186.40" arrivalSpeed="11.56" duration="35.50" routeLength="395.15" waitingTime="0.00" waitingCount="0" stopTime="0.00" timeLoss="5.07" rerouteNo="0" devices="tripinfo_NS_1 ssm_NS_1" vType="cars" speedFactor="1.15" vaporized=""/>
    <tripinfo id="SN_2" depart="5.00" departLane="3_1_2" departPos="5.10" departSpeed="0.00" departDelay="0.00" arrival="40.50" arrivalLane="1_5_2" arrivalPos="186.40" arrivalSpeed="12.97" duration="35.50" routeLength="395.15" waitingTime="0.00" waitingCount="0" stopTime="0.00" timeLoss="4.81" rerouteNo="0" devices="tripinfo_SN_2 ssm_SN_2" vType="cars" speedFactor="1.03" vaporized=""/>
    <tripinfo id="SE_4" depart="9.00" departLane="3_1_1" departPos="5.10" departSpeed="0.00" departDelay="0.00" arrival="46.00" arrivalLane="1_4_1" arrivalPos="186.40" arrivalSpeed="11.54" duration="37.00" routeLength="379.42" waitingTime="0.00" waitingCount="0" stopTime="0.00" timeLoss="6.84" rerouteNo="0" devices="tripinfo_SE_4 ssm_SE_4" vType="cars" speedFactor="1.12" vaporized=""/>
    <tripinfo id="NS_5" depart="11.00" departLane="5_1_2" departPos="5.10" departSpeed="0.00" departDelay="0.00" arrival="46.50" arrivalLane="1_3_2" arrivalPos="186.40" arrivalSpeed="11.97" duration="35.50" routeLength="395.15" waitingTime="0.00" waitingCount="0" stopTime="0.00" timeLoss="4.74" rerouteNo="0" devices="tripinfo_NS_5 ssm_NS_5" vType="cars" speedFactor="1.01" vaporized=""/>
    <tripinfo id="NS_8" depart="17.00" departLane="5_1_2" departPos="5.10" departSpeed="0.00" departDelay="0.00" arrival="52.50" arrivalLane="1_3_2" arrivalPos="186.40" arrivalSpeed="12.24" duration="35.50" routeLength="395.15" waitingTime="0.00" waitingCount="0" stopTime="0.00" timeLoss="4.78" rerouteNo="0" devices="tripinfo_NS_8 ssm_NS_8" vType="cars" speedFactor="1.04" vaporized=""/>
    <tripinfo id="WE_0" depart="1.00" departLane="2_1_2" departPos="5.10" departSpeed="0.00" departDelay="0.00" arrival="75.00" arrivalLane="1_4_2" arrivalPos="186.40" arrivalSpeed="12.04" duration="74.00" routeLength="395.15" waitingTime="35.00" waitingCount="1" stopTime="0.00" timeLoss="43.50" rerouteNo="0" devices="tripinfo_WE_0 ssm_WE_0" vType="cars" speedFactor="1.06" vaporized=""/>
    <tripinfo id="EW_0" depart="22.00" departLane="4_1_2" departPos="5.10" departSpeed="0.00" departDelay="0.00" arrival="75.50" arrivalLane="1_2_2" arrivalPos="186.40" arrivalSpeed="12.33" duration="53.50" routeLength="395.15" waitingTime="13.00" waitingCount="1" stopTime="0.00" timeLoss="22.70" rerouteNo="0" devices="tripinfo_EW_0 ssm_EW_0" vType="cars" speedFactor="1.00" vaporized=""/>
    <tripinfo id="WE_1" depart="12.00" departLane="2_1_2" departPos="5.10" departSpeed="0.00" departDelay="0.00" arrival="77.50" arrivalLane="1_4_2" arrivalPos="186.40" arrivalSpeed="12.81" duration="65.50" routeLength="395.15" waitingTime="22.00" waitingCount="1" stopTime="0.00" timeLoss="35.03" rerouteNo="0" devices="tripinfo_WE_1 ssm_WE_1" vType="cars" speedFactor="1.03" vaporized=""/>
    <tripinfo id="EW_1" depart="42.00" departLane="4_1_2" departPos="5.10" departSpeed="0.00" departDelay="0.00" arrival="77.50" arrivalLane="1_2_2" arrivalPos="186.40" arrivalSpeed="12.70" duration="35.50" routeLength="395.15" waitingTime="0.00" waitingCount="0" stopTime="0.00" timeLoss="4.86" rerouteNo="0" devices="tripinfo_EW_1 ssm_EW_1" vType="cars" speedFactor="1.04" vaporized=""/>
    <tripinfo id="EN_10" depart="20.00" departLane="4_1_1" departPos="5.10" departSpeed="0.00" departDelay="0.00" arrival="79.00" arrivalLane="1_5_1" arrivalPos="186.40" arrivalSpeed="12.95" duration="59.00" routeLength="379.42" waitingTime="19.00" waitingCount="1" stopTime="0.00" timeLoss="28.80" rerouteNo="0" devices="tripinfo_EN_10 ssm_EN_10" vType="cars" speedFactor="1.01" vaporized=""/>
    <tripinfo id="WS_3" depart="7.00" departLane="2_1_1" departPos="5.10" departSpeed="0.00" departDelay="0.00" arrival="80.00" arrivalLane="1_3_1" arrivalPos="186.40" arrivalSpeed="12.79" duration="73.00" routeLength="379.43" waitingTime="33.50" waitingCount="1" stopTime="0.00" timeLoss="42.69" rerouteNo="0" devices="tripinfo_WS_3 ssm_WS_3" vType="cars" speedFactor="0.82" vaporized=""/>
    <tripinfo id="WE_2" depart="22.00" departLane="2_1_2" departPos="5.10" departSpeed="0.00" departDelay="0.00" arrival="80.00" arrivalLane="1_4_2" arrivalPos="186.40" arrivalSpeed="12.43" duration="58.00" routeLength="395.15" waitingTime="12.00" waitingCount="1" stopTime="0.00" timeLoss="27.22" rerouteNo="0" devices="tripinfo_WE_2 ssm_WE_2" vType="cars" speedFactor="1.02" vaporized=""/>
    <tripinfo id="EW_2" depart="46.00" departLane="4_1_2" departPos="5.10" departSpeed="0.00" departDelay="0.00" arrival="81.50" arrivalLane="1_2_2" arrivalPos="186.40" arrivalSpeed="12.44" duration="35.50" routeLength="395.15" waitingTime="0.00" waitingCount="0" stopTime="0.00" timeLoss="4.93" rerouteNo="0" devices="tripinfo_EW_2 ssm_EW_2" vType="cars" speedFactor="0.96" vaporized=""/>
    <tripinfo id="WE_3" depart="27.00" departLane="2_1_2" departPos="5.10" departSpeed="0.00" departDelay="0.00" arrival="82.00" arrivalLane="1_4_2" arrivalPos="186.40" arrivalSpeed="12.58" duration="55.00" routeLength="395.15" waitingTime="8.50" waitingCount="1" stopTime="0.00" timeLoss="24.22" rerouteNo="0" devices="tripinfo_WE_3 ssm_WE_3" vType="cars" speedFactor="1.16" vaporized=""/>
    <tripinfo id="WS_6" depart="14.00" departLane="2_1_1" departPos="5.10" departSpeed="0.00" departDelay="0.00" arrival="82.50" arrivalLane="1_3_1" arrivalPos="186.40" arrivalSpeed="11.63" duration="68.50" routeLength="379.43" waitingTime="24.00" waitingCount="1" stopTime="0.00" timeLoss="38.53" rerouteNo="0" devices="tripinfo_WS_6 ssm_WS_6" vType="cars" speedFactor="1.07" vaporized=""/>
    <tripinfo id="WE_4" depart="50.00" departLane="2_1_2" departPos="5.10" departSpeed="0.00" departDelay="0.00" arrival="86.00" arrivalLane="1_4_2" arrivalPos="186.40" arrivalSpeed="12.94" duration="36.00" routeLength="395.15" waitingTime="0.00" waitingCount="0" stopTime="0.00" timeLoss="5.26" rerouteNo="0" devices="tripinfo_WE_4 ssm_WE_4" vType="cars" speedFactor="1.00" vaporized=""/>
    <tripinfo id="WN_7" depart="16.00" departLane="2_1_3" departPos="5.10" departSpeed="0.00" departDelay="0.00" arrival="102.00" arrivalLane="1_5_2" arrivalPos="186.40" arrivalSpeed="12.62" duration="86.00" routeLength="392.21" waitingTime="44.00" waitingCount="1" stopTime="0.00" timeLoss="54.94" rerouteNo="0" devices="tripinfo_WN_7 ssm_WN_7" vType="cars" speedFactor="0.96" vaporized=""/>
    <tripinfo id="ES_24" depart="73.00" departLane="4_1_3" departPos="5.10" departSpeed="0.00" departDelay="0.00" arrival="110.50" arrivalLane="1_3_2" arrivalPos="186.40" arrivalSpeed="11.64" duration="37.50" routeLength="392.21" waitingTime="0.00" waitingCount="0" stopTime="0.00" timeLoss="6.84" rerouteNo="0" devices="tripinfo_ES_24 ssm_ES_24" vType="cars" speedFactor="1.08" vaporized=""/>
    <tripinfo id="SN_9" depart="18.00" departLane="3_1_2" departPos="5.10" departSpeed="0.00" departDelay="0.00" arrival="119.00" arrivalLane="1_5_2" arrivalPos="186.40" arrivalSpeed="12.57" duration="101.00" routeLength="395.15" waitingTime="59.00" waitingCount="1" stopTime="0.00" timeLoss="70.43" rerouteNo="0" devices="tripinfo_SN_9 ssm_SN_9" vType="cars" speedFactor="1.23" vaporized=""/>
    <tripinfo id="NS_11" depart="20.00" departLane="5_1_2" departPos="5.10" departSpeed="0.00" departDelay="0.00" arrival="119.00" arrivalLane="1_3_2" arrivalPos="186.40" arrivalSpeed="12.10" duration="99.00" routeLength="395.15" waitingTime="57.50" waitingCount="1" stopTime="0.00" timeLoss="68.44" rerouteNo="0" devices="tripinfo_NS_11 ssm_NS_11" vType="cars" speedFactor="1.12" vaporized=""/>
    <tripinfo id="SN_12" depart="25.00" departLane="3_1_2" departPos="5.10" departSpeed="0.00" departDelay="0.00" arrival="121.00" arrivalLane="1_5_2" arrivalPos="186.40" arrivalSpeed="11.51" duration="96.00" routeLength="395.15" waitingTime="51.50" waitingCount="1" stopTime="0.00" timeLoss="65.40" rerouteNo="0" devices="tripinfo_SN_12 ssm_SN_12" vType="cars" speedFactor="0.95" vaporized=""/>
    <tripinfo id="NS_13" depart="26.00" departLane="5_1_2" departPos="5.10" departSpeed="0.00" departDelay="0.00" arrival="121.50" arrivalLane="1_3_2" arrivalPos="186.40" arrivalSpeed="12.07" duration="95.50" routeLength="395.15" waitingTime="49.00" waitingCount="1" stopTime="0.00" timeLoss="64.84" rerouteNo="0" devices="tripinfo_NS_13 ssm_NS_13" vType="cars" speedFactor="1.11" vaporized=""/>
    <tripinfo id="NW_21" depart="53.00" departLane="5_1_1" departPos="5.10" departSpeed="0.00" departDelay="0.00" arrival="121.50" arrivalLane="1_2_1" arrivalPos="186.40" arrivalSpeed="12.26" duration="68.50" routeLength="379.43" waitingTime="28.50" waitingCount="1" stopTime="0.00" timeLoss="38.63" rerouteNo="0" devices="tripinfo_NW_21 ssm_NW_21" vType="cars" speedFactor="1.07" vaporized=""/>
    <tripinfo id="NS_14" depart="29.50" departLane="5_1_2" departPos="5.10" departSpeed="0.00" departDelay="2.50" arrival="123.00" arrivalLane="1_3_2" arrivalPos="186.40" arrivalSpeed="11.96" duration="93.50" routeLength="395.15" waitingTime="46.00" waitingCount="1" stopTime="0.00" timeLoss="63.08" rerouteNo="0" devices="tripinfo_NS_14 ssm_NS_14" vType="cars" speedFactor="0.94" vaporized=""/>
    <tripinfo id="SN_15" depart="29.00" departLane="3_1_2" departPos="5.10" departSpeed="0.00" departDelay="0.00" arrival="123.00" arrivalLane="1_5_2" arrivalPos="186.40" arrivalSpeed="12.18" duration="94.00" routeLength="395.15" waitingTime="48.00" waitingCount="1" stopTime="0.00" timeLoss="63.21" rerouteNo="0" devices="tripinfo_SN_15 ssm_SN_15" vType="cars" speedFactor="1.13" vaporized=""/>
    <tripinfo id="SE_19" depart="39.00" departLane="3_1_1" departPos="5.10" departSpeed="0.00" departDelay="0.00" arrival="123.00" arrivalLane="1_4_1" arrivalPos="186.40" arrivalSpeed="12.45" duration="84.00" routeLength="379.42" waitingTime="44.00" waitingCount="1" stopTime="0.00" timeLoss="53.86" rerouteNo="0" devices="tripinfo_SE_19 ssm_SE_19" vType="cars" speedFactor="1.00" vaporized=""/>
    <tripinfo id="SN_17" depart="33.00" departLane="3_1_2" departPos="5.10" departSpeed="0.00" departDelay="0.00" arrival="124.50" arrivalLane="1_5_2" arrivalPos="186.40" arrivalSpeed="11.73" duration="91.50" routeLength="395.15" waitingTime="44.50" waitingCount="1" stopTime="0.00" timeLoss="60.98" rerouteNo="0" devices="tripinfo_SN_17 ssm_SN_17" vType="cars" speedFactor="1.14" vaporized=""/>
    <tripinfo id="NW_23" depart="69.00" departLane="5_1_1" departPos="5.10" departSpeed="0.00" departDelay="0.00" arrival="125.00" arrivalLane="1_2_1" arrivalPos="186.40" arrivalSpeed="12.22" duration="56.00" routeLength="379.43" waitingTime="12.00" waitingCount="1" stopTime="0.00" timeLoss="26.32" rerouteNo="0" devices="tripinfo_NW_23 ssm_NW_23" vType="cars" speedFactor="1.18" vaporized=""/>
    <tripinfo id="SE_27" depart="78.00" departLane="3_1_1" departPos="5.10" departSpeed="0.00" departDelay="0.00" arrival="125.00" arrivalLane="1_4_1" arrivalPos="186.40" arrivalSpeed="12.61" duration="47.00" routeLength="379.42" waitingTime="3.00" waitingCount="1" stopTime="0.00" timeLoss="17.36" rerouteNo="0" devices="tripinfo_SE_27 ssm_SE_27" vType="cars" speedFactor="1.13" vaporized=""/>
    <tripinfo id="NS_16" depart="32.50" departLane="5_1_2" departPos="5.10" departSpeed="0.00" departDelay="2.50" arrival="125.50" arrivalLane="1_3_2" arrivalPos="186.40" arrivalSpeed="12.06" duration="93.00" routeLength="395.15" waitingTime="44.50" waitingCount="1" stopTime="0.00" timeLoss="62.52" rerouteNo="0" devices="tripinfo_NS_16 ssm_NS_16" vType="cars" speedFactor="0.73" vaporized=""/>
    <tripinfo id="SN_18" depart="36.00" departLane="3_1_2" departPos="5.10" departSpeed="0.00" departDelay="0.00" arrival="127.00" arrivalLane="1_5_2" arrivalPos="186.40" arrivalSpeed="11.66" duration="91.00" routeLength="395.15" waitingTime="43.00" waitingCount="1" stopTime="0.00" timeLoss="60.61" rerouteNo="0" devices="tripinfo_SN_18 ssm_SN_18" vType="cars" speedFactor="0.89" vaporized=""/>
    <tripinfo id="NS_22" depart="66.00" departLane="5_1_2" departPos="5.10" departSpeed="0.00" departDelay="0.00" arrival="127.50" arrivalLane="1_3_2" arrivalPos="186.40" arrivalSpeed="11.72" duration="61.50" routeLength="395.15" waitingTime="13.50" waitingCount="1" stopTime="0.00" timeLoss="30.86" rerouteNo="0" devices="tripinfo_NS_22 ssm_NS_22" vType="cars" speedFactor="1.12" vaporized=""/>
    <tripinfo id="SN_20" depart="40.00" departLane="3_1_2" departPos="5.10" departSpeed="0.00" departDelay="0.00" arrival="129.00" arrivalLane="1_5_2" arrivalPos="186.40" arrivalSpeed="12.15" duration="89.00" routeLength="395.15" waitingTime="39.50" waitingCount="2" stopTime="0.00" timeLoss="58.33" rerouteNo="0" devices="tripinfo_SN_20 ssm_SN_20" vType="cars" speedFactor="0.97" vaporized=""/>
    <tripinfo id="NS_26" depart="75.00" departLane="5_1_2" departPos="5.10" departSpeed="0.00" departDelay="0.00" arrival="129.50" arrivalLane="1_3_2" arrivalPos="186.40" arrivalSpeed="12.43" duration="54.50" routeLength="395.15" waitingTime="6.50" waitingCount="2" stopTime="0.00" timeLoss="23.69" rerouteNo="0" devices="tripinfo_NS_26 ssm_NS_26" vType="cars" speedFactor="0.88" vaporized=""/>
    <tripinfo id="SN_25" depart="74.00" departLane="3_1_2" departPos="5.10" departSpeed="0.00" departDelay="0.00" arrival="131.00" arrivalLane="1_5_2" arrivalPos="186.40" arrivalSpeed="11.83" duration="57.00" routeLength="395.15" waitingTime="8.00" waitingCount="1" stopTime="0.00" timeLoss="26.20" rerouteNo="0" devices="tripinfo_SN_25 ssm_SN_25" vType="cars" speedFactor="0.91" vaporized=""/>
    <tripinfo id="NS_29" depart="83.00" departLane="5_1_2" departPos="5.10" departSpeed="0.00" departDelay="0.00" arrival="131.00" arrivalLane="1_3_2" arrivalPos="186.40" arrivalSpeed="11.80" duration="48.00" routeLength="395.15" waitingTime="0.00" waitingCount="0" stopTime="0.00" timeLoss="17.53" rerouteNo="0" devices="tripinfo_NS_29 ssm_NS_29" vType="cars" speedFactor="0.91" vaporized=""/>
    <tripinfo id="SN_28" depart="81.00" departLane="3_1_2" departPos="5.10" departSpeed="0.00" departDelay="0.00" arrival="133.50" arrivalLane="1_5_2" arrivalPos="186.40" arrivalSpeed="12.02" duration="52.50" routeLength="395.15" waitingTime="3.00" waitingCount="1" stopTime="0.00" timeLoss="21.88" rerouteNo="0" devices="tripinfo_SN_28 ssm_SN_28" vType="cars" speedFactor="1.05" vaporized=""/>
    <tripinfo id="NS_32" depart="87.00" departLane="5_1_2" departPos="5.10" departSpeed="0.00" departDelay="0.00" arrival="133.50" arrivalLane="1_3_2" arrivalPos="186.40" arrivalSpeed="11.83" duration="46.50" routeLength="395.15" waitingTime="0.00" waitingCount="0" stopTime="0.00" timeLoss="15.74" rerouteNo="0" devices="tripinfo_NS_32 ssm_NS_32" vType="cars" speedFactor="0.98" vaporized=""/>
    <tripinfo id="SN_30" depart="83.50" departLane="3_1_2" departPos="5.10" departSpeed="0.00" departDelay="0.50" arrival="135.50" arrivalLane="1_5_2" arrivalPos="186.40" arrivalSpeed="11.65" duration="52.00" routeLength="395.15" waitingTime="0.50" waitingCount="1" stopTime="0.00" timeLoss="21.56" rerouteNo="0" devices="tripinfo_SN_30 ssm_SN_30" vType="cars" speedFactor="1.00" vaporized=""/>
    <tripinfo id="SN_31" depart="86.50" departLane="3_1_2" departPos="5.10" departSpeed="0.00" departDelay="2.50" arrival="137.50" arrivalLane="1_5_2" arrivalPos="186.40" arrivalSpeed="12.34" duration="51.00" routeLength="395.15" waitingTime="0.00" waitingCount="0" stopTime="0.00" timeLoss="20.31" rerouteNo="0" devices="tripinfo_SN_31 ssm_SN_31" vType="cars" speedFactor="1.03" vaporized=""/>
    <tripinfo id="SN_33" depart="90.00" departLane="3_1_2" departPos="5.10" departSpeed="0.00" departDelay="0.00" arrival="139.50" arrivalLane="1_5_2" arrivalPos="186.40" arrivalSpeed="12.18" duration="49.50" routeLength="395.15" waitingTime="0.00" waitingCount="0" stopTime="0.00" timeLoss="18.70" rerouteNo="0" devices="tripinfo_SN_33 ssm_SN_33" vType="cars" speedFactor="1.09" vaporized=""/>
    <tripinfo id="SN_34" depart="97.00" departLane="3_1_2" departPos="5.10" departSpeed="0.00" departDelay="0.00" arrival="141.00" arrivalLane="1_5_2" arrivalPos="186.40" arrivalSpeed="12.50" duration="44.00" routeLength="395.15" waitingTime="0.00" waitingCount="0" stopTime="0.00" timeLoss="13.56" rerouteNo="0" devices="tripinfo_SN_34 ssm_SN_34" vType="cars" speedFactor="1.14" vaporized=""/>
    <tripinfo id="NS_37" depart="105.00" departLane="5_1_2" departPos="5.10" departSpeed="0.00" departDelay="0.00" arrival="141.00" arrivalLane="1_3_2" arrivalPos="186.40" arrivalSpeed="12.08" duration="36.00" routeLength="395.15" waitingTime="0.00" waitingCount="0" stopTime="0.00" timeLoss="5.42" rerouteNo="0" devices="tripinfo_NS_37 ssm_NS_37" vType="cars" speedFactor="1.09" vaporized=""/>
    <tripinfo id="SN_38" depart="107.00" departLane="3_1_2" departPos="5.10" departSpeed="0.00" departDelay="0.00" arrival="143.00" arrivalLane="1_5_2" arrivalPos="186.40" arrivalSpeed="12.81" duration="36.00" routeLength="395.15" waitingTime="0.00" waitingCount="0" stopTime="0.00" timeLoss="5.30" rerouteNo="0" devices="tripinfo_SN_38 ssm_SN_38" vType="cars" speedFactor="1.08" vaporized=""/>
    <tripinfo id="NW_36" depart="101.00" departLane="5_1_1" departPos="5.10" departSpeed="0.00" departDelay="0.00" arrival="144.00" arrivalLane="1_2_1" arrivalPos="186.40" arrivalSpeed="12.90" duration="43.00" routeLength="379.43" waitingTime="3.50" waitingCount="1" stopTime="0.00" timeLoss="12.77" rerouteNo="0" devices="tripinfo_NW_36 ssm_NW_36" vType="cars" speedFactor="0.92" vaporized=""/>
    <tripinfo id="SN_40" depart="110.00" departLane="3_1_2" departPos="5.10" departSpeed="0.00" departDelay="0.00" arrival="146.00" arrivalLane="1_5_2" arrivalPos="186.40" arrivalSpeed="11.53" duration="36.00" routeLength="395.15" waitingTime="0.00" waitingCount="0" stopTime="0.00" timeLoss="5.61" rerouteNo="0" devices="tripinfo_SN_40 ssm_SN_40" vType="cars" speedFactor="1.10" vaporized=""/>
    <tripinfo id="NS_41" depart="111.00" departLane="5_1_2" departPos="5.10" departSpeed="0.00" departDelay="0.00" arrival="147.50" arrivalLane="1_3_2" arrivalPos="186.40" arrivalSpeed="12.01" duration="36.50" routeLength="395.15" waitingTime="0.00" waitingCount="0" stopTime="0.00" timeLoss="6.05" rerouteNo="0" devices="tripinfo_NS_41 ssm_NS_41" vType="cars" speedFactor="1.03" vaporized=""/>
    <tripinfo id="SW_43" depart="123.00" departLane="3_1_3" departPos="5.10" departSpeed="0.00" departDelay="1.00" arrival="161.00" arrivalLane="1_2_2" arrivalPos="186.40" arrivalSpeed="11.78" duration="38.00" routeLength="392.21" waitingTime="0.00" waitingCount="0" stopTime="0.00" timeLoss="6.86" rerouteNo="0" devices="tripinfo_SW_43 ssm_SW_43" vType="cars" speedFactor="0.97" vaporized=""/>
    <tripinfo id="WE_5" depart="75.00" departLane="2_1_2" departPos="5.10" departSpeed="0.00" departDelay="0.00" arrival="176.00" arrivalLane="1_4_2" arrivalPos="186.40" arrivalSpeed="12.92" duration="101.00" routeLength="395.15" waitingTime="61.00" waitingCount="1" stopTime="0.00" timeLoss="70.46" rerouteNo="0" devices="tripinfo_WE_5 ssm_WE_5" vType="cars" speedFactor="1.14" vaporized=""/>
    <tripinfo id="EW_3" depart="59.00" departLane="4_1_2" departPos="5.10" departSpeed="0.00" departDelay="0.00" arrival="177.50" arrivalLane="1_2_2" arrivalPos="186.40" arrivalSpeed="11.51" duration="118.50" routeLength="395.15" waitingTime="75.50" waitingCount="1" stopTime="0.00" timeLoss="87.97" rerouteNo="0" devices="tripinfo_EW_3 ssm_EW_3" vType="cars" speedFactor="0.93" vaporized=""/>
    <tripinfo id="EW_4" depart="62.00" departLane="4_1_2" departPos="5.10" departSpeed="0.00" departDelay="0.00" arrival="179.50" arrivalLane="1_2_2" arrivalPos="186.40" arrivalSpeed="12.57" duration="117.50" routeLength="395.15" waitingTime="71.50" waitingCount="1" stopTime="0.00" timeLoss="86.91" rerouteNo="0" devices="tripinfo_EW_4 ssm_EW_4" vType="cars" speedFactor="1.06" vaporized=""/>
    <tripinfo id="WE_6" depart="77.50" departLane="2_1_2" departPos="5.10" departSpeed="0.00" departDelay="0.50" arrival="179.50" arrivalLane="1_4_2" arrivalPos="186.40" arrivalSpeed="12.36" duration="102.00" routeLength="395.15" waitingTime="55.50" waitingCount="1" stopTime="0.00" timeLoss="71.37" rerouteNo="0" devices="tripinfo_WE_6 ssm_WE_6" vType="cars" speedFactor="0.99" vaporized=""/>
    <tripinfo id="WS_48" depart="134.00" departLane="2_1_1" departPos="5.10" departSpeed="0.00" departDelay="0.00" arrival="180.50" arrivalLane="1_3_1" arrivalPos="186.40" arrivalSpeed="12.75" duration="46.50" routeLength="379.43" waitingTime="7.00" waitingCount="1" stopTime="0.00" timeLoss="15.94" rerouteNo="0" devices="tripinfo_WS_48 ssm_WS_48" vType="cars" speedFactor="0.87" vaporized=""/>
    <tripinfo id="EW_5" depart="76.00" departLane="4_1_2" departPos="5.10" departSpeed="0.00" departDelay="0.00" arrival="181.50" arrivalLane="1_2_2" arrivalPos="186.40" arrivalSpeed="12.67" duration="105.50" routeLength="395.15" waitingTime="58.50" waitingCount="1" stopTime="0.00" timeLoss="74.81" rerouteNo="0" devices="tripinfo_EW_5 ssm_EW_5" vType="cars" speedFactor="1.08" vaporized=""/>
    <tripinfo id="WE_7" depart="89.00" departLane="2_1_2" departPos="5.10" departSpeed="0.00" departDelay="0.00" arrival="181.50" arrivalLane="1_4_2" arrivalPos="186.40" arrivalSpeed="11.58" duration="92.50" routeLength="395.15" waitingTime="46.00" waitingCount="1" stopTime="0.00" timeLoss="61.84" rerouteNo="0" devices="tripinfo_WE_7 ssm_WE_7" vType="cars" speedFactor="0.94" vaporized=""/>
    <tripinfo id="WE_8" depart="92.50" departLane="2_1_2" departPos="5.10" departSpeed="0.00" departDelay="0.50" arrival="183.50" arrivalLane="1_4_2" arrivalPos="186.40" arrivalSpeed="12.34" duration="91.00" routeLength="395.15" waitingTime="43.50" waitingCount="1" stopTime="0.00" timeLoss="60.14" rerouteNo="0" devices="tripinfo_WE_8 ssm_WE_8" vType="cars" speedFactor="0.90" vaporized=""/>
    <tripinfo id="EW_6" depart="92.00" departLane="4_1_2" departPos="5.10" departSpeed="0.00" departDelay="0.00" arrival="183.50" arrivalLane="1_2_2" arrivalPos="186.40" arrivalSpeed="12.53" duration="91.50" routeLength="395.15" waitingTime="44.50" waitingCount="1" stopTime="0.00" timeLoss="60.90" rerouteNo="0" devices="tripinfo_EW_6 ssm_EW_6" vType="cars" speedFactor="0.89" vaporized=""/>
    <tripinfo id="WE_9" depart="106.00" departLane="2_1_2" departPos="5.10" departSpeed="0.00" departDelay="0.00" arrival="185.00" arrivalLane="1_4_2" arrivalPos="186.40" arrivalSpeed="12.92" duration="79.00" routeLength="395.15" waitingTime="33.00" waitingCount="1" stopTime="0.00" timeLoss="48.44" rerouteNo="0" devices="tripinfo_WE_9 ssm_WE_9" vType="cars" speedFactor="1.03" vaporized=""/>
    <tripinfo id="EN_39" depart="109.00" departLane="4_1_1" departPos="5.10" departSpeed="0.00" departDelay="0.00" arrival="185.50" arrivalLane="1_5_1" arrivalPos="186.40" arrivalSpeed="11.71" duration="76.50" routeLength="379.42" waitingTime="34.50" waitingCount="2" stopTime="0.00" timeLoss="46.70" rerouteNo="0" devices="tripinfo_EN_39 ssm_EN_39" vType="cars" speedFactor="1.06" vaporized=""/>
    <tripinfo id="EW_7" depart="111.00" departLane="4_1_2" departPos="5.10" departSpeed="0.00" departDelay="0.00" arrival="185.50" arrivalLane="1_2_2" arrivalPos="186.40" arrivalSpeed="12.47" duration="74.50" routeLength="395.15" waitingTime="27.00" waitingCount="2" stopTime="0.00" timeLoss="43.69" rerouteNo="0" devices="tripinfo_EW_7 ssm_EW_7" vType="cars" speedFactor="1.03" vaporized=""/>
    <tripinfo id="WE_10" depart="116.00" departLane="2_1_2" departPos="5.10" departSpeed="0.00" departDelay="0.00" arrival="187.00" arrivalLane="1_4_2" arrivalPos="186.40" arrivalSpeed="11.66" duration="71.00" routeLength="395.15" waitingTime="23.00" waitingCount="1" stopTime="0.00" timeLoss="40.28" rerouteNo="0" devices="tripinfo_WE_10 ssm_WE_10" vType="cars" speedFactor="1.08" vaporized=""/>
    <tripinfo id="EW_8" depart="123.00" departLane="4_1_2" departPos="5.10" departSpeed="0.00" departDelay="0.00" arrival="187.00" arrivalLane="1_2_2" arrivalPos="186.40" arrivalSpeed="12.05" duration="64.00" routeLength="395.15" waitingTime="17.00" waitingCount="1" stopTime="0.00" timeLoss="33.51" rerouteNo="0" devices="tripinfo_EW_8 ssm_EW_8" vType="cars" speedFactor="0.90" vaporized=""/>
    <tripinfo id="WE_11" depart="119.00" departLane="2_1_2" departPos="5.10" departSpeed="0.00" departDelay="2.00" arrival="188.50" arrivalLane="1_4_2" arrivalPos="186.40" arrivalSpeed="12.91" duration="69.50" routeLength="395.15" waitingTime="21.50" waitingCount="1" stopTime="0.00" timeLoss="38.99" rerouteNo="0" devices="tripinfo_WE_11 ssm_WE_11" vType="cars" speedFactor="0.94" vaporized=""/>
    <tripinfo id="EW_9" depart="128.00" departLane="4_1_2" departPos="5.10" departSpeed="0.00" departDelay="0.00" arrival="189.50" arrivalLane="1_2_2" arrivalPos="186.40" arrivalSpeed="11.74" duration="61.50" routeLength="395.15" waitingTime="13.00" waitingCount="1" stopTime="0.00" timeLoss="31.10" rerouteNo="0" devices="tripinfo_EW_9 ssm_EW_9" vType="cars" speedFactor="1.10" vaporized=""/>
    <tripinfo id="WE_12" depart="121.50" departLane="2_1_2" departPos="5.10" departSpeed="0.00" departDelay="3.50" arrival="190.50" arrivalLane="1_4_2" arrivalPos="186.40" arrivalSpeed="12.88" duration="69.00" routeLength="395.15" waitingTime="20.00" waitingCount="1" stopTime="0.00" timeLoss="38.34" rerouteNo="0" devices="tripinfo_WE_12 ssm_WE_12" vType="cars" speedFactor="0.92" vaporized=""/>
    <tripinfo id="EW_10" depart="144.00" departLane="4_1_2" departPos="5.10" departSpeed="0.00" departDelay="0.00" arrival="191.50" arrivalLane="1_2_2" arrivalPos="186.40" arrivalSpeed="12.17" duration="47.50" routeLength="395.15" waitingTime="0.00" waitingCount="0" stopTime="0.00" timeLoss="16.92" rerouteNo="0" devices="tripinfo_EW_10 ssm_EW_10" vType="cars" speedFactor="1.03" vaporized=""/>
    <tripinfo id="WE_13" depart="124.00" departLane="2_1_2" departPos="5.10" departSpeed="0.00" departDelay="5.00" arrival="192.50" arrivalLane="1_4_2" arrivalPos="186.40" arrivalSpeed="12.86" duration="68.50" routeLength="395.15" waitingTime="18.50" waitingCount="1" stopTime="0.00" timeLoss="37.64" rerouteNo="0" devices="tripinfo_WE_13 ssm_WE_13" vType="cars" speedFactor="1.08" vaporized=""/>
    <tripinfo id="EN_60" depart="157.00" departLane="4_1_1" departPos="5.10" departSpeed="0.00" departDelay="0.00" arrival="193.00" arrivalLane="1_5_1" arrivalPos="186.40" arrivalSpeed="12.06" duration="36.00" routeLength="379.42" waitingTime="0.00" waitingCount="0" stopTime="0.00" timeLoss="6.14" rerouteNo="0" devices="tripinfo_EN_60 ssm_EN_60" vType="cars" speedFactor="1.04" vaporized=""/>
    <tripinfo id="EW_11" depart="146.50" departLane="4_1_2" departPos="5.10" departSpeed="0.00" departDelay="1.50" arrival="193.50" arrivalLane="1_2_2" arrivalPos="186.40" arrivalSpeed="11.55" duration="47.00" routeLength="395.15" waitingTime="0.00" waitingCount="0" stopTime="0.00" timeLoss="16.42" rerouteNo="0" devices="tripinfo_EW_11 ssm_EW_11" vType="cars" speedFactor="1.11" vaporized=""/>
    <tripinfo id="WE_14" depart="126.50" departLane="2_1_2" departPos="5.10" departSpeed="0.00" departDelay="4.50" arrival="194.00" arrivalLane="1_4_2" arrivalPos="186.40" arrivalSpeed="12.34" duration="67.50" routeLength="395.15" waitingTime="16.50" waitingCount="1" stopTime="0.00" timeLoss="37.00" rerouteNo="0" devices="tripinfo_WE_14 ssm_WE_14" vType="cars" speedFactor="0.89" vaporized=""/>