<?xml version="1.0" encoding="UTF-8"?>

<!-- generated on 2025-03-25 16:42:24 by Eclipse SUMO GUI Version 1.20.0
<configuration xmlns:xsi="http://www.w3.org/2001/XMLSchema-instance" xsi:noNamespaceSchemaLocation="http://sumo.dlr.de/xsd/sumoConfiguration.xsd">

    <input>
        <net-file value="/home/naderian/Desktop/Shakiba/MMSVCC/environment/network_model/single_intersection_pedestrian_X.net.xml"/>
        <route-files value="/home/naderian/Desktop/Shakiba/MMSVCC/environment/network_model/single_intersection.rou.xml"/>
        <additional-files value="/home/naderian/Desktop/Shakiba/MMSVCC/environment/network_model/single_intersection_Concurrent.add.xml"/>
    </input>

    <output>
        <queue-output value="/home/naderian/Desktop/Shakiba/MMSVCC/environment/simulation_data/single_intersection/queues_multi_scale_symmetric_pene_100.xml"/>
        <tripinfo-output value="/home/naderian/Desktop/Shakiba/MMSVCC/environment/simulation_data/single_intersection/tripinfo_multi_scale_symmetric_pene_100.xml"/>
    </output>

    <time>
        <begin value="0"/>
        <step-length value="0.5"/>
    </time>

    <processing>
        <waiting-time-memory value="1000"/>
    </processing>

    <report>
        <verbose value="true"/>
        <no-step-log value="true"/>
    </report>

    <traci_server>
        <remote-port value="42895"/>
    </traci_server>

    <gui_only>
        <start value="true"/>
    </gui_only>

</configuration>
-->

<tripinfos xmlns:xsi="http://www.w3.org/2001/XMLSchema-instance" xsi:noNamespaceSchemaLocation="http://sumo.dlr.de/xsd/tripinfo_file.xsd">
    <tripinfo id="SN_0" depart="0.00" departLane="3_1_2" departPos="5.10" departSpeed="0.00" departDelay="0.00" arrival="35.00" arrivalLane="1_5_1" arrivalPos="186.40" arrivalSpeed="13.00" duration="35.00" routeLength="395.15" waitingTime="0.00" waitingCount="0" stopTime="0.00" timeLoss="4.21" rerouteNo="0" devices="tripinfo_SN_0" vType="cars" speedFactor="1.04" vaporized=""/>
    <tripinfo id="NS_1" depart="1.00" departLane="5_1_2" departPos="5.10" departSpeed="0.00" departDelay="0.00" arrival="37.00" arrivalLane="1_3_1" arrivalPos="186.40" arrivalSpeed="13.00" duration="36.00" routeLength="395.15" waitingTime="0.00" waitingCount="0" stopTime="0.00" timeLoss="5.41" rerouteNo="0" devices="tripinfo_NS_1" vType="cars" speedFactor="0.95" vaporized=""/>
    <tripinfo id="SN_2" depart="5.00" departLane="3_1_2" departPos="5.10" departSpeed="0.00" departDelay="0.00" arrival="40.50" arrivalLane="1_5_1" arrivalPos="186.40" arrivalSpeed="13.00" duration="35.50" routeLength="395.15" waitingTime="0.00" waitingCount="0" stopTime="0.00" timeLoss="4.90" rerouteNo="0" devices="tripinfo_SN_2" vType="cars" speedFactor="0.85" vaporized=""/>
    <tripinfo id="SE_4" depart="9.00" departLane="3_1_1" departPos="5.10" departSpeed="0.00" departDelay="0.00" arrival="43.50" arrivalLane="1_4_1" arrivalPos="186.40" arrivalSpeed="13.00" duration="34.50" routeLength="379.42" waitingTime="0.00" waitingCount="0" stopTime="0.00" timeLoss="4.81" rerouteNo="0" devices="tripinfo_SE_4" vType="cars" speedFactor="1.10" vaporized=""/>
    <tripinfo id="NS_5" depart="11.00" departLane="5_1_2" departPos="5.10" departSpeed="0.00" departDelay="0.00" arrival="47.50" arrivalLane="1_3_1" arrivalPos="186.40" arrivalSpeed="13.00" duration="36.50" routeLength="395.15" waitingTime="0.00" waitingCount="0" stopTime="0.00" timeLoss="5.84" rerouteNo="0" devices="tripinfo_NS_5" vType="cars" speedFactor="1.17" vaporized=""/>
    <tripinfo id="EN_10" depart="20.00" departLane="4_1_1" departPos="5.10" departSpeed="0.00" departDelay="0.00" arrival="58.50" arrivalLane="1_5_1" arrivalPos="186.40" arrivalSpeed="13.00" duration="38.50" routeLength="379.42" waitingTime="0.00" waitingCount="0" stopTime="0.00" timeLoss="8.43" rerouteNo="0" devices="tripinfo_EN_10" vType="cars" speedFactor="0.98" vaporized=""/>
    <tripinfo id="EW_0" depart="22.00" departLane="4_1_2" departPos="5.10" departSpeed="0.00" departDelay="0.00" arrival="59.00" arrivalLane="1_2_2" arrivalPos="186.40" arrivalSpeed="13.00" duration="37.00" routeLength="395.15" waitingTime="0.00" waitingCount="0" stopTime="0.00" timeLoss="6.24" rerouteNo="0" devices="tripinfo_EW_0" vType="cars" speedFactor="0.96" vaporized=""/>
    <tripinfo id="WE_0" depart="1.00" departLane="2_1_2" departPos="5.10" departSpeed="0.00" departDelay="0.00" arrival="60.00" arrivalLane="1_4_1" arrivalPos="186.40" arrivalSpeed="13.00" duration="59.00" routeLength="395.15" waitingTime="19.50" waitingCount="1" stopTime="0.00" timeLoss="28.55" rerouteNo="0" devices="tripinfo_WE_0" vType="cars" speedFactor="0.86" vaporized=""/>
    <tripinfo id="WE_1" depart="12.00" departLane="2_1_2" departPos="5.10" departSpeed="0.00" departDelay="0.00" arrival="60.00" arrivalLane="1_4_2" arrivalPos="186.40" arrivalSpeed="13.00" duration="48.00" routeLength="395.15" waitingTime="7.00" waitingCount="4" stopTime="0.00" timeLoss="17.55" rerouteNo="0" devices="tripinfo_WE_1" vType="cars" speedFactor="1.12" vaporized=""/>
    <tripinfo id="WS_3" depart="7.00" departLane="2_1_1" departPos="5.10" departSpeed="0.00" departDelay="0.00" arrival="61.00" arrivalLane="1_3_1" arrivalPos="186.40" arrivalSpeed="13.00" duration="54.00" routeLength="379.43" waitingTime="10.00" waitingCount="6" stopTime="0.00" timeLoss="23.86" rerouteNo="0" devices="tripinfo_WS_3" vType="cars" speedFactor="0.93" vaporized=""/>
    <tripinfo id="WE_2" depart="22.00" departLane="2_1_2" departPos="5.10" departSpeed="0.00" departDelay="0.00" arrival="61.50" arrivalLane="1_4_2" arrivalPos="186.40" arrivalSpeed="13.00" duration="39.50" routeLength="395.15" waitingTime="0.00" waitingCount="0" stopTime="0.00" timeLoss="9.10" rerouteNo="0" devices="tripinfo_WE_2" vType="cars" speedFactor="1.17" vaporized=""/>
    <tripinfo id="WS_6" depart="14.00" departLane="2_1_1" departPos="5.10" departSpeed="0.00" departDelay="0.00" arrival="70.00" arrivalLane="1_3_1" arrivalPos="186.40" arrivalSpeed="8.61" duration="56.00" routeLength="379.43" waitingTime="4.50" waitingCount="5" stopTime="0.00" timeLoss="25.81" rerouteNo="0" devices="tripinfo_WS_6" vType="cars" speedFactor="1.02" vaporized=""/>
    <tripinfo id="NS_8" depart="17.00" departLane="5_1_2" departPos="5.10" departSpeed="0.00" departDelay="0.00" arrival="72.00" arrivalLane="1_3_1" arrivalPos="186.40" arrivalSpeed="13.00" duration="55.00" routeLength="395.15" waitingTime="12.50" waitingCount="1" stopTime="0.00" timeLoss="24.55" rerouteNo="0" devices="tripinfo_NS_8" vType="cars" speedFactor="1.01" vaporized=""/>
    <tripinfo id="SN_9" depart="18.00" departLane="3_1_2" departPos="5.10" departSpeed="0.00" departDelay="0.00" arrival="72.00" arrivalLane="1_5_1" arrivalPos="186.40" arrivalSpeed="13.00" duration="54.00" routeLength="395.15" waitingTime="10.50" waitingCount="2" stopTime="0.00" timeLoss="23.55" rerouteNo="0" devices="tripinfo_SN_9" vType="cars" speedFactor="1.04" vaporized=""/>
    <tripinfo id="NS_11" depart="20.00" departLane="5_1_2" departPos="5.10" departSpeed="0.00" departDelay="0.00" arrival="72.00" arrivalLane="1_3_2" arrivalPos="186.40" arrivalSpeed="13.00" duration="52.00" routeLength="395.15" waitingTime="7.50" waitingCount="2" stopTime="0.00" timeLoss="21.55" rerouteNo="0" devices="tripinfo_NS_11" vType="cars" speedFactor="1.00" vaporized=""/>
    <tripinfo id="SN_15" depart="29.00" departLane="3_1_2" departPos="5.10" departSpeed="0.00" departDelay="0.00" arrival="72.00" arrivalLane="1_5_2" arrivalPos="186.40" arrivalSpeed="13.00" duration="43.00" routeLength="395.15" waitingTime="3.50" waitingCount="1" stopTime="0.00" timeLoss="12.55" rerouteNo="0" devices="tripinfo_SN_15" vType="cars" speedFactor="0.90" vaporized=""/>
    <tripinfo id="SN_12" depart="25.00" departLane="3_1_2" departPos="5.10" departSpeed="0.00" departDelay="0.00" arrival="73.50" arrivalLane="1_5_1" arrivalPos="186.40" arrivalSpeed="13.00" duration="48.50" routeLength="395.15" waitingTime="2.50" waitingCount="5" stopTime="0.00" timeLoss="18.09" rerouteNo="0" devices="tripinfo_SN_12" vType="cars" speedFactor="0.97" vaporized=""/>
    <tripinfo id="NS_13" depart="26.00" departLane="5_1_2" departPos="5.10" departSpeed="0.00" departDelay="0.00" arrival="73.50" arrivalLane="1_3_1" arrivalPos="186.40" arrivalSpeed="13.00" duration="47.50" routeLength="395.15" waitingTime="1.00" waitingCount="2" stopTime="0.00" timeLoss="17.09" rerouteNo="0" devices="tripinfo_NS_13" vType="cars" speedFactor="0.89" vaporized=""/>
    <tripinfo id="NS_14" depart="28.50" departLane="5_1_2" departPos="5.10" departSpeed="0.00" departDelay="1.50" arrival="73.50" arrivalLane="1_3_2" arrivalPos="186.40" arrivalSpeed="13.00" duration="45.00" routeLength="395.15" waitingTime="0.00" waitingCount="0" stopTime="0.00" timeLoss="14.59" rerouteNo="0" devices="tripinfo_NS_14" vType="cars" speedFactor="0.84" vaporized=""/>
    <tripinfo id="SN_17" depart="33.00" departLane="3_1_2" departPos="5.10" departSpeed="0.00" departDelay="0.00" arrival="73.50" arrivalLane="1_5_2" arrivalPos="186.40" arrivalSpeed="13.00" duration="40.50" routeLength="395.15" waitingTime="0.00" waitingCount="0" stopTime="0.00" timeLoss="10.09" rerouteNo="0" devices="tripinfo_SN_17" vType="cars" speedFactor="1.00" vaporized=""/>
    <tripinfo id="SN_20" depart="40.00" departLane="3_1_2" departPos="5.10" departSpeed="0.00" departDelay="0.00" arrival="76.00" arrivalLane="1_5_2" arrivalPos="186.40" arrivalSpeed="13.00" duration="36.00" routeLength="395.15" waitingTime="0.00" waitingCount="0" stopTime="0.00" timeLoss="5.43" rerouteNo="0" devices="tripinfo_SN_20" vType="cars" speedFactor="0.93" vaporized=""/>
    <tripinfo id="SE_19" depart="39.00" departLane="3_1_1" departPos="5.10" departSpeed="0.00" departDelay="0.00" arrival="77.00" arrivalLane="1_4_1" arrivalPos="186.40" arrivalSpeed="13.00" duration="38.00" routeLength="379.42" waitingTime="0.00" waitingCount="0" stopTime="0.00" timeLoss="7.87" rerouteNo="0" devices="tripinfo_SE_19" vType="cars" speedFactor="0.99" vaporized=""/>
    <tripinfo id="SN_18" depart="36.00" departLane="3_1_2" departPos="5.10" departSpeed="0.00" departDelay="0.00" arrival="78.00" arrivalLane="1_5_1" arrivalPos="186.40" arrivalSpeed="10.96" duration="42.00" routeLength="395.15" waitingTime="0.00" waitingCount="0" stopTime="0.00" timeLoss="11.42" rerouteNo="0" devices="tripinfo_SN_18" vType="cars" speedFactor="0.96" vaporized=""/>
    <tripinfo id="NS_16" depart="31.00" departLane="5_1_2" departPos="5.10" departSpeed="0.00" departDelay="1.00" arrival="81.00" arrivalLane="1_3_1" arrivalPos="186.40" arrivalSpeed="9.45" duration="50.00" routeLength="395.15" waitingTime="0.00" waitingCount="0" stopTime="0.00" timeLoss="19.53" rerouteNo="0" devices="tripinfo_NS_16" vType="cars" speedFactor="1.13" vaporized=""/>
    <tripinfo id="WE_4" depart="50.00" departLane="2_1_2" departPos="5.10" departSpeed="0.00" departDelay="0.00" arrival="88.00" arrivalLane="1_4_1" arrivalPos="186.40" arrivalSpeed="13.00" duration="38.00" routeLength="395.15" waitingTime="0.00" waitingCount="0" stopTime="0.00" timeLoss="7.55" rerouteNo="0" devices="tripinfo_WE_4" vType="cars" speedFactor="0.99" vaporized=""/>
    <tripinfo id="EW_1" depart="42.00" departLane="4_1_2" departPos="5.10" departSpeed="0.00" departDelay="0.00" arrival="89.00" arrivalLane="1_2_1" arrivalPos="186.40" arrivalSpeed="13.00" duration="47.00" routeLength="395.15" waitingTime="6.00" waitingCount="2" stopTime="0.00" timeLoss="16.55" rerouteNo="0" devices="tripinfo_EW_1" vType="cars" speedFactor="1.13" vaporized=""/>
    <tripinfo id="EW_2" depart="46.00" departLane="4_1_2" departPos="5.10" departSpeed="0.00" departDelay="0.00" arrival="89.00" arrivalLane="1_2_2" arrivalPos="186.40" arrivalSpeed="13.00" duration="43.00" routeLength="395.15" waitingTime="4.00" waitingCount="1" stopTime="0.00" timeLoss="12.55" rerouteNo="0" devices="tripinfo_EW_2" vType="cars" speedFactor="0.95" vaporized=""/>
    <tripinfo id="WE_3" depart="27.00" departLane="2_1_2" departPos="5.10" departSpeed="0.00" departDelay="0.00" arrival="89.50" arrivalLane="1_4_1" arrivalPos="186.40" arrivalSpeed="13.00" duration="62.50" routeLength="395.15" waitingTime="18.00" waitingCount="1" stopTime="0.00" timeLoss="32.08" rerouteNo="0" devices="tripinfo_WE_3" vType="cars" speedFactor="1.02" vaporized=""/>
    <tripinfo id="EW_3" depart="59.00" departLane="4_1_2" departPos="5.10" departSpeed="0.00" departDelay="0.00" arrival="95.00" arrivalLane="1_2_1" arrivalPos="186.40" arrivalSpeed="13.00" duration="36.00" routeLength="395.15" waitingTime="0.00" waitingCount="0" stopTime="0.00" timeLoss="5.54" rerouteNo="0" devices="tripinfo_EW_3" vType="cars" speedFactor="0.83" vaporized=""/>
    <tripinfo id="EW_4" depart="62.00" departLane="4_1_2" departPos="5.10" departSpeed="0.00" departDelay="0.00" arrival="98.00" arrivalLane="1_2_1" arrivalPos="186.40" arrivalSpeed="13.00" duration="36.00" routeLength="395.15" waitingTime="0.00" waitingCount="0" stopTime="0.00" timeLoss="5.23" rerouteNo="0" devices="tripinfo_EW_4" vType="cars" speedFactor="0.98" vaporized=""/>
    <tripinfo id="NW_21" depart="53.00" departLane="5_1_1" departPos="5.10" departSpeed="0.00" departDelay="0.00" arrival="111.00" arrivalLane="1_2_1" arrivalPos="186.40" arrivalSpeed="13.00" duration="58.00" routeLength="379.43" waitingTime="14.50" waitingCount="5" stopTime="0.00" timeLoss="28.04" rerouteNo="0" devices="tripinfo_NW_21" vType="cars" speedFactor="1.00" vaporized=""/>
    <tripinfo id="NS_22" depart="66.00" departLane="5_1_2" departPos="5.10" departSpeed="0.00" departDelay="0.00" arrival="111.00" arrivalLane="1_3_1" arrivalPos="186.40" arrivalSpeed="13.00" duration="45.00" routeLength="395.15" waitingTime="3.50" waitingCount="1" stopTime="0.00" timeLoss="14.55" rerouteNo="0" devices="tripinfo_NS_22" vType="cars" speedFactor="0.93" vaporized=""/>
    <tripinfo id="NS_26" depart="75.00" departLane="5_1_2" departPos="5.10" departSpeed="0.00" departDelay="0.00" arrival="112.50" arrivalLane="1_3_1" arrivalPos="186.40" arrivalSpeed="13.00" duration="37.50" routeLength="395.15" waitingTime="0.00" waitingCount="0" stopTime="0.00" timeLoss="6.96" rerouteNo="0" devices="tripinfo_NS_26" vType="cars" speedFactor="1.03" vaporized=""/>
    <tripinfo id="SN_25" depart="74.00" departLane="3_1_2" departPos="5.10" departSpeed="0.00" departDelay="0.00" arrival="113.00" arrivalLane="1_5_1" arrivalPos="186.40" arrivalSpeed="13.00" duration="39.00" routeLength="395.15" waitingTime="1.00" waitingCount="1" stopTime="0.00" timeLoss="8.55" rerouteNo="0" devices="tripinfo_SN_25" vType="cars" speedFactor="0.86" vaporized=""/>
    <tripinfo id="NW_23" depart="69.00" departLane="5_1_1" departPos="5.10" departSpeed="0.00" departDelay="0.00" arrival="114.50" arrivalLane="1_2_1" arrivalPos="186.40" arrivalSpeed="13.00" duration="45.50" routeLength="379.43" waitingTime="0.00" waitingCount="0" stopTime="0.00" timeLoss="15.35" rerouteNo="0" devices="tripinfo_NW_23" vType="cars" speedFactor="1.07" vaporized=""/>
    <tripinfo id="SN_28" depart="81.00" departLane="3_1_2" departPos="5.10" departSpeed="0.00" departDelay="0.00" arrival="117.50" arrivalLane="1_5_2" arrivalPos="186.40" arrivalSpeed="13.00" duration="36.50" routeLength="395.15" waitingTime="0.00" waitingCount="0" stopTime="0.00" timeLoss="5.68" rerouteNo="0" devices="tripinfo_SN_28" vType="cars" speedFactor="0.97" vaporized=""/>
    <tripinfo id="NS_29" depart="83.00" departLane="5_1_2" departPos="5.10" departSpeed="0.00" departDelay="0.00" arrival="118.50" arrivalLane="1_3_1" arrivalPos="186.40" arrivalSpeed="13.00" duration="35.50" routeLength="395.15" waitingTime="0.00" waitingCount="0" stopTime="0.00" timeLoss="5.05" rerouteNo="0" devices="tripinfo_NS_29" vType="cars" speedFactor="1.02" vaporized=""/>
    <tripinfo id="SN_30" depart="84.00" departLane="3_1_2" departPos="5.10" departSpeed="0.00" departDelay="1.00" arrival="120.00" arrivalLane="1_5_2" arrivalPos="186.40" arrivalSpeed="13.00" duration="36.00" routeLength="395.15" waitingTime="0.00" waitingCount="0" stopTime="0.00" timeLoss="5.27" rerouteNo="0" devices="tripinfo_SN_30" vType="cars" speedFactor="0.97" vaporized=""/>
    <tripinfo id="SN_31" depart="86.50" departLane="3_1_2" departPos="5.10" departSpeed="0.00" departDelay="2.50" arrival="122.50" arrivalLane="1_5_2" arrivalPos="186.40" arrivalSpeed="13.00" duration="36.00" routeLength="395.15" waitingTime="0.00" waitingCount="0" stopTime="0.00" timeLoss="5.37" rerouteNo="0" devices="tripinfo_SN_31" vType="cars" speedFactor="0.98" vaporized=""/>
    <tripinfo id="SE_27" depart="78.00" departLane="3_1_1" departPos="5.10" departSpeed="0.00" departDelay="0.00" arrival="123.00" arrivalLane="1_4_1" arrivalPos="186.40" arrivalSpeed="13.00" duration="45.00" routeLength="379.42" waitingTime="6.50" waitingCount="1" stopTime="0.00" timeLoss="14.56" rerouteNo="0" devices="tripinfo_SE_27" vType="cars" speedFactor="0.90" vaporized=""/>
    <tripinfo id="SN_33" depart="90.00" departLane="3_1_2" departPos="5.10" departSpeed="0.00" departDelay="0.00" arrival="126.00" arrivalLane="1_5_1" arrivalPos="186.40" arrivalSpeed="13.00" duration="36.00" routeLength="395.15" waitingTime="0.00" waitingCount="0" stopTime="0.00" timeLoss="5.26" rerouteNo="0" devices="tripinfo_SN_33" vType="cars" speedFactor="0.98" vaporized=""/>
    <tripinfo id="NS_32" depart="87.00" departLane="5_1_2" departPos="5.10" departSpeed="0.00" departDelay="0.00" arrival="127.00" arrivalLane="1_3_1" arrivalPos="186.40" arrivalSpeed="11.00" duration="40.00" routeLength="395.15" waitingTime="0.00" waitingCount="0" stopTime="0.00" timeLoss="9.26" rerouteNo="0" devices="tripinfo_NS_32" vType="cars" speedFactor="0.93" vaporized=""/>
    <tripinfo id="WE_6" depart="77.00" departLane="2_1_2" departPos="5.10" departSpeed="0.00" departDelay="0.00" arrival="139.00" arrivalLane="1_4_2" arrivalPos="186.40" arrivalSpeed="13.00" duration="62.00" routeLength="395.15" waitingTime="17.50" waitingCount="1" stopTime="0.00" timeLoss="31.55" rerouteNo="0" devices="tripinfo_WE_6" vType="cars" speedFactor="0.93" vaporized=""/>
    <tripinfo id="WE_8" depart="92.50" departLane="2_1_2" departPos="5.10" departSpeed="0.00" departDelay="0.50" arrival="140.50" arrivalLane="1_4_1" arrivalPos="186.40" arrivalSpeed="13.00" duration="48.00" routeLength="395.15" waitingTime="3.50" waitingCount="5" stopTime="0.00" timeLoss="17.59" rerouteNo="0" devices="tripinfo_WE_8" vType="cars" speedFactor="0.92" vaporized=""/>
    <tripinfo id="EW_6" depart="92.00" departLane="4_1_2" departPos="5.10" departSpeed="0.00" departDelay="0.00" arrival="141.50" arrivalLane="1_2_1" arrivalPos="186.40" arrivalSpeed="13.00" duration="49.50" routeLength="395.15" waitingTime="7.50" waitingCount="2" stopTime="0.00" timeLoss="19.05" rerouteNo="0" devices="tripinfo_EW_6" vType="cars" speedFactor="1.07" vaporized=""/>
    <tripinfo id="WE_9" depart="106.00" departLane="2_1_2" departPos="5.10" departSpeed="0.00" departDelay="0.00" arrival="143.00" arrivalLane="1_4_1" arrivalPos="186.40" arrivalSpeed="13.00" duration="37.00" routeLength="395.15" waitingTime="0.00" waitingCount="0" stopTime="0.00" timeLoss="6.25" rerouteNo="0" devices="tripinfo_WE_9" vType="cars" speedFactor="0.95" vaporized=""/>
    <tripinfo id="EW_5" depart="76.00" departLane="4_1_2" departPos="5.10" departSpeed="0.00" departDelay="0.00" arrival="144.50" arrivalLane="1_2_1" arrivalPos="186.40" arrivalSpeed="13.00" duration="68.50" routeLength="395.15" waitingTime="26.50" waitingCount="5" stopTime="0.00" timeLoss="38.05" rerouteNo="0" devices="tripinfo_EW_5" vType="cars" speedFactor="1.06" vaporized=""/>
    <tripinfo id="WE_5" depart="75.00" departLane="2_1_2" departPos="5.10" departSpeed="0.00" departDelay="0.00" arrival="145.00" arrivalLane="1_4_1" arrivalPos="186.40" arrivalSpeed="11.00" duration="70.00" routeLength="395.15" waitingTime="25.00" waitingCount="1" stopTime="0.00" timeLoss="39.29" rerouteNo="0" devices="tripinfo_WE_5" vType="cars" speedFactor="1.24" vaporized=""/>
    <tripinfo id="WE_7" depart="89.00" departLane="2_1_2" departPos="5.10" departSpeed="0.00" departDelay="0.00" arrival="146.50" arrivalLane="1_4_1" arrivalPos="186.40" arrivalSpeed="13.00" duration="57.50" routeLength="395.15" waitingTime="8.00" waitingCount="4" stopTime="0.00" timeLoss="26.69" rerouteNo="0" devices="tripinfo_WE_7" vType="cars" speedFactor="0.95" vaporized=""/>
    <tripinfo id="EW_7" depart="111.00" departLane="4_1_2" departPos="5.10" departSpeed="0.00" departDelay="0.00" arrival="146.50" arrivalLane="1_2_2" arrivalPos="186.40" arrivalSpeed="13.00" duration="35.50" routeLength="395.15" waitingTime="0.00" waitingCount="0" stopTime="0.00" timeLoss="4.88" rerouteNo="0" devices="tripinfo_EW_7" vType="cars" speedFactor="1.25" vaporized=""/>
    <tripinfo id="EN_39" depart="109.00" departLane="4_1_1" departPos="5.10" departSpeed="0.00" departDelay="0.00" arrival="150.50" arrivalLane="1_5_1" arrivalPos="186.40" arrivalSpeed="13.00" duration="41.50" routeLength="379.42" waitingTime="2.00" waitingCount="1" stopTime="0.00" timeLoss="11.25" rerouteNo="0" devices="tripinfo_EN_39" vType="cars" speedFactor="1.06" vaporized=""/>
    <tripinfo id="WE_10" depart="116.00" departLane="2_1_2" departPos="5.10" departSpeed="0.00" departDelay="0.00" arrival="152.00" arrivalLane="1_4_1" arrivalPos="186.40" arrivalSpeed="13.00" duration="36.00" routeLength="395.15" waitingTime="0.00" waitingCount="0" stopTime="0.00" timeLoss="5.34" rerouteNo="0" devices="tripinfo_WE_10" vType="cars" speedFactor="1.05" vaporized=""/>
    <tripinfo id="WE_11" depart="118.50" departLane="2_1_2" departPos="5.10" departSpeed="0.00" departDelay="1.50" arrival="154.50" arrivalLane="1_4_1" arrivalPos="186.40" arrivalSpeed="13.00" duration="36.00" routeLength="395.15" waitingTime="0.00" waitingCount="0" stopTime="0.00" timeLoss="5.34" rerouteNo="0" devices="tripinfo_WE_11" vType="cars" speedFactor="1.12" vaporized=""/>
    <tripinfo id="WE_12" depart="121.00" departLane="2_1_2" departPos="5.10" departSpeed="0.00" departDelay="3.00" arrival="157.50" arrivalLane="1_4_1" arrivalPos="186.40" arrivalSpeed="13.00" duration="36.50" routeLength="395.15" waitingTime="0.00" waitingCount="0" stopTime="0.00" timeLoss="5.69" rerouteNo="0" devices="tripinfo_WE_12" vType="cars" speedFactor="0.97" vaporized=""/>
    <tripinfo id="EW_8" depart="123.00" departLane="4_1_2" departPos="5.10" departSpeed="0.00" departDelay="0.00" arrival="158.50" arrivalLane="1_2_1" arrivalPos="186.40" arrivalSpeed="13.00" duration="35.50" routeLength="395.15" waitingTime="0.00" waitingCount="0" stopTime="0.00" timeLoss="4.85" rerouteNo="0" devices="tripinfo_EW_8" vType="cars" speedFactor="0.99" vaporized=""/>
    <tripinfo id="WE_13" depart="124.00" departLane="2_1_2" departPos="5.10" departSpeed="0.00" departDelay="5.00" arrival="160.00" arrivalLane="1_4_1" arrivalPos="186.40" arrivalSpeed="13.00" duration="36.00" routeLength="395.15" waitingTime="0.00" waitingCount="0" stopTime="0.00" timeLoss="5.17" rerouteNo="0" devices="tripinfo_WE_13" vType="cars" speedFactor="0.93" vaporized=""/>
    <tripinfo id="WE_14" depart="126.50" departLane="2_1_2" departPos="5.10" departSpeed="0.00" departDelay="4.50" arrival="163.00" arrivalLane="1_4_1" arrivalPos="186.40" arrivalSpeed="13.00" duration="36.50" routeLength="395.15" waitingTime="0.00" waitingCount="0" stopTime="0.00" timeLoss="5.67" rerouteNo="0" devices="tripinfo_WE_14" vType="cars" speedFactor="1.11" vaporized=""/>
    <tripinfo id="EW_9" depart="128.00" departLane="4_1_2" departPos="5.10" departSpeed="0.00" departDelay="0.00" arrival="163.50" arrivalLane="1_2_1" arrivalPos="186.40" arrivalSpeed="13.00" duration="35.50" routeLength="395.15" waitingTime="0.00" waitingCount="0" stopTime="0.00" timeLoss="4.97" rerouteNo="0" devices="tripinfo_EW_9" vType="cars" speedFactor="1.00" vaporized=""/>
    <tripinfo id="WE_15" depart="129.50" departLane="2_1_2" departPos="5.10" departSpeed="0.00" departDelay="4.50" arrival="165.00" arrivalLane="1_4_1" arrivalPos="186.40" arrivalSpeed="13.00" duration="35.50" routeLength="395.15" waitingTime="0.00" waitingCount="0" stopTime="0.00" timeLoss="4.85" rerouteNo="0" devices="tripinfo_WE_15" vType="cars" speedFactor="1.05" vaporized=""/>
    <personinfo id="person_ES_diag.0" depart="6.72" type="DEFAULT_PEDTYPE" speedFactor="1.22" duration="162.00" waitingTime="0.00" timeLoss="27.66" traveltime="162.00">
        <walk depart="7.00" departPos="100.00" arrival="169.00" arrivalPos="93.20" duration="162.00" routeLength="228.50" timeLoss="27.66" maxSpeed="1.70"/>
    </personinfo>
    <tripinfo id="WS_48" depart="134.00" departLane="2_1_1" departPos="5.10" departSpeed="0.00" departDelay="0.00" arrival="169.50" arrivalLane="1_3_1" arrivalPos="186.40" arrivalSpeed="13.00" duration="35.50" routeLength="379.43" waitingTime="0.00" waitingCount="0" stopTime="0.00" timeLoss="4.88" rerouteNo="0" devices="tripinfo_WS_48" vType="cars" speedFactor="0.93" vaporized=""/>
    <personinfo id="person_SW_diag.0" depart="13.61" type="DEFAULT_PEDTYPE" speedFactor="1.17" duration="157.00" waitingTime="0.00" timeLoss="19.16" traveltime="157.00">
        <walk depart="14.00" departPos="100.00" arrival="171.00" arrivalPos="93.20" duration="157.00" routeLength="223.30" timeLoss="19.16" maxSpeed="1.62"/>
    </personinfo>
    <personinfo id="person_NS_w.3" depart="26.46" type="DEFAULT_PEDTYPE" speedFactor="1.15" duration="147.00" waitingTime="0.00" timeLoss="8.22" traveltime="147.00">
        <walk depart="26.50" departPos="100.00" arrival="173.50" arrivalPos="93.20" duration="147.00" routeLength="221.25" timeLoss="8.22" maxSpeed="1.59"/>
    </personinfo>
    <personinfo id="person_SN_e.0" depart="18.06" type="DEFAULT_PEDTYPE" speedFactor="1.15" duration="155.00" waitingTime="0.00" timeLoss="16.32" traveltime="155.00">
        <walk depart="18.50" departPos="100.00" arrival="173.50" arrivalPos="93.20" duration="155.00" routeLength="221.24" timeLoss="16.32" maxSpeed="1.60"/>
    </personinfo>
    <personinfo id="person_WE_s.0" depart="1.92" type="DEFAULT_PEDTYPE" speedFactor="0.98" duration="173.00" waitingTime="0.00" timeLoss="9.71" traveltime="173.00">
        <walk depart="2.00" departPos="100.00" arrival="175.00" arrivalPos="93.20" duration="173.00" routeLength="221.17" timeLoss="9.71" maxSpeed="1.35"/>
    </personinfo>
    <personinfo id="person_NS_w.0" depart="2.40" type="DEFAULT_PEDTYPE" speedFactor="1.12" duration="174.00" waitingTime="0.00" timeLoss="31.83" traveltime="174.00">
        <walk depart="2.50" departPos="100.00" arrival="176.50" arrivalPos="93.20" duration="174.00" routeLength="221.25" timeLoss="31.83" maxSpeed="1.56"/>
    </personinfo>
    <tripinfo id="NS_37" depart="105.00" departLane="5_1_2" departPos="5.10" departSpeed="0.00" departDelay="0.00" arrival="180.00" arrivalLane="1_3_2" arrivalPos="186.40" arrivalSpeed="13.00" duration="75.00" routeLength="395.15" waitingTime="34.00" waitingCount="3" stopTime="0.00" timeLoss="44.55" rerouteNo="0" devices="tripinfo_NS_37" vType="cars" speedFactor="1.01" vaporized=""/>
    <tripinfo id="SN_38" depart="107.00" departLane="3_1_2" departPos="5.10" departSpeed="0.00" departDelay="0.00" arrival="180.00" arrivalLane="1_5_2" arrivalPos="186.40" arrivalSpeed="13.00" duration="73.00" routeLength="395.15" waitingTime="31.00" waitingCount="1" stopTime="0.00" timeLoss="42.55" rerouteNo="0" devices="tripinfo_SN_38" vType="cars" speedFactor="0.93" vaporized=""/>
    <tripinfo id="SN_34" depart="97.00" departLane="3_1_2" departPos="5.10" departSpeed="0.00" departDelay="0.00" arrival="181.50" arrivalLane="1_5_1" arrivalPos="186.40" arrivalSpeed="13.00" duration="84.50" routeLength="395.15" waitingTime="44.00" waitingCount="1" stopTime="0.00" timeLoss="54.05" rerouteNo="0" devices="tripinfo_SN_34" vType="cars" speedFactor="1.12" vaporized=""/>
    <tripinfo id="SN_40" depart="110.00" departLane="3_1_2" departPos="5.10" departSpeed="0.00" departDelay="0.00" arrival="181.50" arrivalLane="1_5_2" arrivalPos="186.40" arrivalSpeed="13.00" duration="71.50" routeLength="395.15" waitingTime="25.50" waitingCount="4" stopTime="0.00" timeLoss="41.09" rerouteNo="0" devices="tripinfo_SN_40" vType="cars" speedFactor="1.06" vaporized=""/>
    <tripinfo id="NS_41" depart="111.00" departLane="5_1_2" departPos="5.10" departSpeed="0.00" departDelay="0.00" arrival="181.50" arrivalLane="1_3_1" arrivalPos="186.40" arrivalSpeed="13.00" duration="70.50" routeLength="395.15" waitingTime="25.50" waitingCount="3" stopTime="0.00" timeLoss="39.90" rerouteNo="0" devices="tripinfo_NS_41" vType="cars" speedFactor="1.06" vaporized=""/>
    <personinfo id="person_NE_diag.0" depart="4.77" type="DEFAULT_PEDTYPE" speedFactor="1.01" duration="177.50" waitingTime="0.00" timeLoss="17.62" traveltime="177.50">
        <walk depart="5.00" departPos="100.00" arrival="182.50" arrivalPos="93.20" duration="177.50" routeLength="223.30" timeLoss="17.62" maxSpeed="1.40"/>
    </personinfo>
    <tripinfo id="NS_54" depart="148.00" departLane="5_1_2" departPos="5.10" departSpeed="0.00" departDelay="0.00" arrival="186.00" arrivalLane="1_3_1" arrivalPos="186.40" arrivalSpeed="13.00" duration="38.00" routeLength="395.15" waitingTime="0.00" waitingCount="0" stopTime="0.00" timeLoss="7.30" rerouteNo="0" devices="tripinfo_NS_54" vType="cars" speedFactor="1.01" vaporized=""/>
    <tripinfo id="SN_50" depart="135.00" departLane="3_1_2" departPos="5.10" departSpeed="0.00" departDelay="1.00" arrival="186.50" arrivalLane="1_5_2" arrivalPos="186.40" arrivalSpeed="13.00" duration="51.50" routeLength="395.15" waitingTime="1.50" waitingCount="3" stopTime="0.00" timeLoss="20.72" rerouteNo="0" devices="tripinfo_SN_50" vType="cars" speedFactor="1.05" vaporized=""/>
    <personinfo id="person_WN_diag.0" depart="12.22" type="DEFAULT_PEDTYPE" speedFactor="1.07" duration="175.00" waitingTime="0.00" timeLoss="17.84" traveltime="175.00">