<?xml version="1.0" encoding="UTF-8"?>

<!-- generated on 2025-06-27 16:36:45 by Eclipse SUMO GUI Version 1.22.0
<sumoConfiguration xmlns:xsi="http://www.w3.org/2001/XMLSchema-instance" xsi:noNamespaceSchemaLocation="http://sumo.dlr.de/xsd/sumoConfiguration.xsd">

    <input>
        <net-file value="/home/naderian/Desktop/Shakiba/MMSVCC/environment/network_model/single_intersection_Concurrent_(delayed_turn).net.xml"/>
        <route-files value="/home/naderian/Desktop/Shakiba/MMSVCC/environment/network_model/single_intersection.rou.xml"/>
        <additional-files value="/home/naderian/Desktop/Shakiba/MMSVCC/environment/network_model/single_intersection.add_actuated_(delayed_turn).xml"/>
    </input>

    <output>
        <queue-output value="/home/naderian/Desktop/Shakiba/MMSVCC/environment/simulation_data/single_intersection/queues_actuated_asymmetric_pene_100.xml"/>
        <tripinfo-output value="/home/naderian/Desktop/Shakiba/MMSVCC/environment/simulation_data/single_intersection/tripinfo_actuated_asymmetric_pene_100.xml"/>
    </output>

    <time>
        <begin value="0"/>
        <step-length value="0.5"/>
    </time>

    <processing>
        <waiting-time-memory value="1000"/>
    </processing>

    <report>
        <verbose value="true"/>
        <no-step-log value="true"/>
    </report>

    <ssm_device>
        <device.ssm.file value="/home/naderian/Desktop/Shakiba/MMSVCC/environment/simulation_data/single_intersection/SSMinfo_actuated_pene_100.xml"/>
    </ssm_device>

    <traci_server>
        <remote-port value="53755"/>
    </traci_server>

    <gui_only>
        <start value="true"/>
    </gui_only>

</sumoConfiguration>
-->

<tripinfos xmlns:xsi="http://www.w3.org/2001/XMLSchema-instance" xsi:noNamespaceSchemaLocation="http://sumo.dlr.de/xsd/tripinfo_file.xsd">
    <tripinfo id="SN_0" depart="0.00" departLane="3_1_2" departPos="5.10" departSpeed="0.00" departDelay="0.00" arrival="35.50" arrivalLane="1_5_2" arrivalPos="186.40" arrivalSpeed="12.18" duration="35.50" routeLength="395.15" waitingTime="0.00" waitingCount="0" stopTime="0.00" timeLoss="5.06" rerouteNo="0" devices="tripinfo_SN_0 ssm_SN_0" vType="cars" speedFactor="1.02" vaporized=""/>
    <tripinfo id="NS_1" depart="1.00" departLane="5_1_2" departPos="5.10" departSpeed="0.00" departDelay="0.00" arrival="36.50" arrivalLane="1_3_2" arrivalPos="186.40" arrivalSpeed="11.98" duration="35.50" routeLength="395.15" waitingTime="0.00" waitingCount="0" stopTime="0.00" timeLoss="4.93" rerouteNo="0" devices="tripinfo_NS_1 ssm_NS_1" vType="cars" speedFactor="1.01" vaporized=""/>
    <tripinfo id="SN_2" depart="5.00" departLane="3_1_2" departPos="5.10" departSpeed="0.00" departDelay="0.00" arrival="40.50" arrivalLane="1_5_2" arrivalPos="186.40" arrivalSpeed="12.97" duration="35.50" routeLength="395.15" waitingTime="0.00" waitingCount="0" stopTime="0.00" timeLoss="4.79" rerouteNo="0" devices="tripinfo_SN_2 ssm_SN_2" vType="cars" speedFactor="1.05" vaporized=""/>
    <tripinfo id="NE_6" depart="20.00" departLane="5_1_3" departPos="5.10" departSpeed="0.00" departDelay="0.00" arrival="59.50" arrivalLane="1_4_2" arrivalPos="186.40" arrivalSpeed="11.70" duration="39.50" routeLength="392.21" waitingTime="0.00" waitingCount="0" stopTime="0.00" timeLoss="8.77" rerouteNo="0" devices="tripinfo_NE_6 ssm_NE_6" vType="cars" speedFactor="0.95" vaporized=""/>
    <tripinfo id="WE_0" depart="1.00" departLane="2_1_2" departPos="5.10" departSpeed="0.00" departDelay="0.00" arrival="75.50" arrivalLane="1_4_2" arrivalPos="186.40" arrivalSpeed="11.63" duration="74.50" routeLength="395.15" waitingTime="34.00" waitingCount="1" stopTime="0.00" timeLoss="43.74" rerouteNo="0" devices="tripinfo_WE_0 ssm_WE_0" vType="cars" speedFactor="1.12" vaporized=""/>
    <tripinfo id="EW_0" depart="32.00" departLane="4_1_2" departPos="5.10" departSpeed="0.00" departDelay="0.00" arrival="76.00" arrivalLane="1_2_2" arrivalPos="186.40" arrivalSpeed="11.54" duration="44.00" routeLength="395.15" waitingTime="2.50" waitingCount="1" stopTime="0.00" timeLoss="13.57" rerouteNo="0" devices="tripinfo_EW_0 ssm_EW_0" vType="cars" speedFactor="0.93" vaporized=""/>
    <tripinfo id="EW_1" depart="37.00" departLane="4_1_2" departPos="5.10" departSpeed="0.00" departDelay="0.00" arrival="78.00" arrivalLane="1_2_2" arrivalPos="186.40" arrivalSpeed="11.76" duration="41.00" routeLength="395.15" waitingTime="0.00" waitingCount="0" stopTime="0.00" timeLoss="10.44" rerouteNo="0" devices="tripinfo_EW_1 ssm_EW_1" vType="cars" speedFactor="1.10" vaporized=""/>
    <tripinfo id="WS_3" depart="7.00" departLane="2_1_1" departPos="5.10" departSpeed="0.00" departDelay="0.00" arrival="79.00" arrivalLane="1_3_1" arrivalPos="186.40" arrivalSpeed="11.82" duration="72.00" routeLength="379.43" waitingTime="33.00" waitingCount="1" stopTime="0.00" timeLoss="41.94" rerouteNo="0" devices="tripinfo_WS_3 ssm_WS_3" vType="cars" speedFactor="1.01" vaporized=""/>
    <tripinfo id="WE_1" depart="10.00" departLane="2_1_2" departPos="5.10" departSpeed="0.00" departDelay="0.00" arrival="79.00" arrivalLane="1_4_2" arrivalPos="186.40" arrivalSpeed="12.97" duration="69.00" routeLength="395.15" waitingTime="23.50" waitingCount="1" stopTime="0.00" timeLoss="38.18" rerouteNo="0" devices="tripinfo_WE_1 ssm_WE_1" vType="cars" speedFactor="0.94" vaporized=""/>
    <tripinfo id="EW_2" depart="42.00" departLane="4_1_2" departPos="5.10" departSpeed="0.00" departDelay="0.00" arrival="80.00" arrivalLane="1_2_2" arrivalPos="186.40" arrivalSpeed="12.77" duration="38.00" routeLength="395.15" waitingTime="0.00" waitingCount="0" stopTime="0.00" timeLoss="7.29" rerouteNo="0" devices="tripinfo_EW_2 ssm_EW_2" vType="cars" speedFactor="1.02" vaporized=""/>
    <tripinfo id="WE_2" depart="12.50" departLane="2_1_2" departPos="5.10" departSpeed="0.00" departDelay="0.50" arrival="80.50" arrivalLane="1_4_2" arrivalPos="186.40" arrivalSpeed="12.86" duration="68.00" routeLength="395.15" waitingTime="20.50" waitingCount="1" stopTime="0.00" timeLoss="37.50" rerouteNo="0" devices="tripinfo_WE_2 ssm_WE_2" vType="cars" speedFactor="0.91" vaporized=""/>
    <tripinfo id="EW_3" depart="46.00" departLane="4_1_2" departPos="5.10" departSpeed="0.00" departDelay="0.00" arrival="82.00" arrivalLane="1_2_2" arrivalPos="186.40" arrivalSpeed="12.57" duration="36.00" routeLength="395.15" waitingTime="0.00" waitingCount="0" stopTime="0.00" timeLoss="5.22" rerouteNo="0" devices="tripinfo_EW_3 ssm_EW_3" vType="cars" speedFactor="1.18" vaporized=""/>
    <tripinfo id="WS_5" depart="16.00" departLane="2_1_1" departPos="5.10" departSpeed="0.00" departDelay="0.00" arrival="82.50" arrivalLane="1_3_1" arrivalPos="186.40" arrivalSpeed="12.89" duration="66.50" routeLength="379.43" waitingTime="22.00" waitingCount="1" stopTime="0.00" timeLoss="36.17" rerouteNo="0" devices="tripinfo_WS_5 ssm_WS_5" vType="cars" speedFactor="0.89" vaporized=""/>
    <tripinfo id="WE_3" depart="19.00" departLane="2_1_2" departPos="5.10" departSpeed="0.00" departDelay="0.00" arrival="82.50" arrivalLane="1_4_2" arrivalPos="186.40" arrivalSpeed="12.86" duration="63.50" routeLength="395.15" waitingTime="16.50" waitingCount="1" stopTime="0.00" timeLoss="32.81" rerouteNo="0" devices="tripinfo_WE_3 ssm_WE_3" vType="cars" speedFactor="0.93" vaporized=""/>
    <tripinfo id="WE_4" depart="26.00" departLane="2_1_2" departPos="5.10" departSpeed="0.00" departDelay="0.00" arrival="84.50" arrivalLane="1_4_2" arrivalPos="186.40" arrivalSpeed="12.63" duration="58.50" routeLength="395.15" waitingTime="12.00" waitingCount="1" stopTime="0.00" timeLoss="27.81" rerouteNo="0" devices="tripinfo_WE_4 ssm_WE_4" vType="cars" speedFactor="1.01" vaporized=""/>
    <tripinfo id="WE_5" depart="29.00" departLane="2_1_2" departPos="5.10" departSpeed="0.00" departDelay="0.00" arrival="87.00" arrivalLane="1_4_2" arrivalPos="186.40" arrivalSpeed="12.37" duration="58.00" routeLength="395.15" waitingTime="8.50" waitingCount="1" stopTime="0.00" timeLoss="27.57" rerouteNo="0" devices="tripinfo_WE_5 ssm_WE_5" vType="cars" speedFactor="1.01" vaporized=""/>
    <tripinfo id="WE_6" depart="31.50" departLane="2_1_2" departPos="5.10" departSpeed="0.00" departDelay="1.50" arrival="89.00" arrivalLane="1_4_2" arrivalPos="186.40" arrivalSpeed="12.94" duration="57.50" routeLength="395.15" waitingTime="7.00" waitingCount="1" stopTime="0.00" timeLoss="26.91" rerouteNo="0" devices="tripinfo_WE_6 ssm_WE_6" vType="cars" speedFactor="0.95" vaporized=""/>
    <tripinfo id="WE_7" depart="50.00" departLane="2_1_2" departPos="5.10" departSpeed="0.00" departDelay="0.00" arrival="91.00" arrivalLane="1_4_2" arrivalPos="186.40" arrivalSpeed="12.71" duration="41.00" routeLength="395.15" waitingTime="0.00" waitingCount="0" stopTime="0.00" timeLoss="10.25" rerouteNo="0" devices="tripinfo_WE_7 ssm_WE_7" vType="cars" speedFactor="1.01" vaporized=""/>
    <tripinfo id="ES_4" depart="14.00" departLane="4_1_3" departPos="5.10" departSpeed="0.00" departDelay="0.00" arrival="102.50" arrivalLane="1_3_2" arrivalPos="186.40" arrivalSpeed="12.49" duration="88.50" routeLength="392.21" waitingTime="46.50" waitingCount="1" stopTime="0.00" timeLoss="58.14" rerouteNo="0" devices="tripinfo_ES_4 ssm_ES_4" vType="cars" speedFactor="1.30" vaporized=""/>
    <tripinfo id="NS_7" depart="22.00" departLane="5_1_2" departPos="5.10" departSpeed="0.00" departDelay="0.00" arrival="118.50" arrivalLane="1_3_2" arrivalPos="186.40" arrivalSpeed="11.75" duration="96.50" routeLength="395.15" waitingTime="55.00" waitingCount="1" stopTime="0.00" timeLoss="66.10" rerouteNo="0" devices="tripinfo_NS_7 ssm_NS_7" vType="cars" speedFactor="0.76" vaporized=""/>
    <tripinfo id="SN_8" depart="25.00" departLane="3_1_2" departPos="5.10" departSpeed="0.00" departDelay="0.00" arrival="118.50" arrivalLane="1_5_2" arrivalPos="186.40" arrivalSpeed="12.05" duration="93.50" routeLength="395.15" waitingTime="51.00" waitingCount="1" stopTime="0.00" timeLoss="62.84" rerouteNo="0" devices="tripinfo_SN_8 ssm_SN_8" vType="cars" speedFactor="0.96" vaporized=""/>
    <tripinfo id="SN_9" depart="28.00" departLane="3_1_2" departPos="5.10" departSpeed="0.00" departDelay="2.00" arrival="120.50" arrivalLane="1_5_2" arrivalPos="186.40" arrivalSpeed="12.72" duration="92.50" routeLength="395.15" waitingTime="46.50" waitingCount="1" stopTime="0.00" timeLoss="61.90" rerouteNo="0" devices="tripinfo_SN_9 ssm_SN_9" vType="cars" speedFactor="0.89" vaporized=""/>
    <tripinfo id="NS_12" depart="34.00" departLane="5_1_2" departPos="5.10" departSpeed="0.00" departDelay="0.00" arrival="121.00" arrivalLane="1_3_2" arrivalPos="186.40" arrivalSpeed="12.62" duration="87.00" routeLength="395.15" waitingTime="41.00" waitingCount="1" stopTime="0.00" timeLoss="56.30" rerouteNo="0" devices="tripinfo_NS_12 ssm_NS_12" vType="cars" speedFactor="0.85" vaporized=""/>
    <tripinfo id="SN_10" depart="31.50" departLane="3_1_2" departPos="5.10" departSpeed="0.00" departDelay="2.50" arrival="122.50" arrivalLane="1_5_2" arrivalPos="186.40" arrivalSpeed="12.32" duration="91.00" routeLength="395.15" waitingTime="44.50" waitingCount="1" stopTime="0.00" timeLoss="60.15" rerouteNo="0" devices="tripinfo_SN_10 ssm_SN_10" vType="cars" speedFactor="0.83" vaporized=""/>
    <tripinfo id="NS_19" depart="66.00" departLane="5_1_2" departPos="5.10" departSpeed="0.00" departDelay="0.00" arrival="123.00" arrivalLane="1_3_2" arrivalPos="186.40" arrivalSpeed="12.25" duration="57.00" routeLength="395.15" waitingTime="11.00" waitingCount="1" stopTime="0.00" timeLoss="26.16" rerouteNo="0" devices="tripinfo_NS_19 ssm_NS_19" vType="cars" speedFactor="0.93" vaporized=""/>
    <tripinfo id="SN_11" depart="34.00" departLane="3_1_2" departPos="5.10" departSpeed="0.00" departDelay="4.00" arrival="124.00" arrivalLane="1_5_2" arrivalPos="186.40" arrivalSpeed="12.20" duration="90.00" routeLength="395.15" waitingTime="42.50" waitingCount="1" stopTime="0.00" timeLoss="59.51" rerouteNo="0" devices="tripinfo_SN_11 ssm_SN_11" vType="cars" speedFactor="1.06" vaporized=""/>
    <tripinfo id="NS_24" depart="84.00" departLane="5_1_2" departPos="5.10" departSpeed="0.00" departDelay="0.00" arrival="125.50" arrivalLane="1_3_2" arrivalPos="186.40" arrivalSpeed="12.16" duration="41.50" routeLength="395.15" waitingTime="0.00" waitingCount="0" stopTime="0.00" timeLoss="10.71" rerouteNo="0" devices="tripinfo_NS_24 ssm_NS_24" vType="cars" speedFactor="1.09" vaporized=""/>
    <tripinfo id="SN_14" depart="38.00" departLane="3_1_2" departPos="5.10" departSpeed="0.00" departDelay="0.00" arrival="126.00" arrivalLane="1_5_2" arrivalPos="186.40" arrivalSpeed="12.89" duration="88.00" routeLength="395.15" waitingTime="40.50" waitingCount="1" stopTime="0.00" timeLoss="57.34" rerouteNo="0" devices="tripinfo_SN_14 ssm_SN_14" vType="cars" speedFactor="0.96" vaporized=""/>
    <tripinfo id="NS_25" depart="92.00" departLane="5_1_2" departPos="5.10" departSpeed="0.00" departDelay="0.00" arrival="127.00" arrivalLane="1_3_2" arrivalPos="186.40" arrivalSpeed="12.38" duration="35.00" routeLength="395.15" waitingTime="0.00" waitingCount="0" stopTime="0.00" timeLoss="4.60" rerouteNo="0" devices="tripinfo_NS_25 ssm_NS_25" vType="cars" speedFactor="0.88" vaporized=""/>
    <tripinfo id="SN_16" depart="41.00" departLane="3_1_2" departPos="5.10" departSpeed="0.00" departDelay="1.00" arrival="128.00" arrivalLane="1_5_2" arrivalPos="186.40" arrivalSpeed="12.45" duration="87.00" routeLength="395.15" waitingTime="38.00" waitingCount="1" stopTime="0.00" timeLoss="56.19" rerouteNo="0" devices="tripinfo_SN_16 ssm_SN_16" vType="cars" speedFactor="0.84" vaporized=""/>
    <tripinfo id="SN_18" depart="60.00" departLane="3_1_2" departPos="5.10" departSpeed="0.00" departDelay="0.00" arrival="129.50" arrivalLane="1_5_2" arrivalPos="186.40" arrivalSpeed="12.71" duration="69.50" routeLength="395.15" waitingTime="21.00" waitingCount="1" stopTime="0.00" timeLoss="38.96" rerouteNo="0" devices="tripinfo_SN_18 ssm_SN_18" vType="cars" speedFactor="0.98" vaporized=""/>
    <tripinfo id="SN_21" depart="75.00" departLane="3_1_2" departPos="5.10" departSpeed="0.00" departDelay="0.00" arrival="131.50" arrivalLane="1_5_2" arrivalPos="186.40" arrivalSpeed="11.66" duration="56.50" routeLength="395.15" waitingTime="8.00" waitingCount="1" stopTime="0.00" timeLoss="25.98" rerouteNo="0" devices="tripinfo_SN_21 ssm_SN_21" vType="cars" speedFactor="1.05" vaporized=""/>
    <tripinfo id="SN_23" depart="83.00" departLane="3_1_2" departPos="5.10" departSpeed="0.00" departDelay="0.00" arrival="134.00" arrivalLane="1_5_2" arrivalPos="186.40" arrivalSpeed="11.74" duration="51.00" routeLength="395.15" waitingTime="1.50" waitingCount="1" stopTime="0.00" timeLoss="20.23" rerouteNo="0" devices="tripinfo_SN_23 ssm_SN_23" vType="cars" speedFactor="1.11" vaporized=""/>
    <tripinfo id="SN_28" depart="105.00" departLane="3_1_2" departPos="5.10" departSpeed="0.00" departDelay="0.00" arrival="141.50" arrivalLane="1_5_2" arrivalPos="186.40" arrivalSpeed="11.72" duration="36.50" routeLength="395.15" waitingTime="0.00" waitingCount="0" stopTime="0.00" timeLoss="5.79" rerouteNo="0" devices="tripinfo_SN_28 ssm_SN_28" vType="cars" speedFactor="1.25" vaporized=""/>
    <tripinfo id="SE_13" depart="36.00" departLane="3_1_1" departPos="5.10" departSpeed="0.00" departDelay="0.00" arrival="146.50" arrivalLane="1_4_1" arrivalPos="186.40" arrivalSpeed="11.63" duration="110.50" routeLength="379.42" waitingTime="68.50" waitingCount="2" stopTime="0.00" timeLoss="80.51" rerouteNo="0" devices="tripinfo_SE_13 ssm_SE_13" vType="cars" speedFactor="1.12" vaporized=""/>
    <tripinfo id="SE_15" depart="39.00" departLane="3_1_1" departPos="5.10" departSpeed="0.00" departDelay="0.00" arrival="148.00" arrivalLane="1_4_2" arrivalPos="186.40" arrivalSpeed="11.64" duration="109.00" routeLength="379.42" waitingTime="60.50" waitingCount="2" stopTime="0.00" timeLoss="78.78" rerouteNo="0" devices="tripinfo_SE_15 ssm_SE_15" vType="cars" speedFactor="0.92" vaporized=""/>
    <tripinfo id="NW_17" depart="53.00" departLane="5_1_1" departPos="5.10" departSpeed="0.00" departDelay="0.00" arrival="149.00" arrivalLane="1_2_1" arrivalPos="186.40" arrivalSpeed="11.93" duration="96.00" routeLength="379.43" waitingTime="51.00" waitingCount="3" stopTime="0.00" timeLoss="65.50" rerouteNo="0" devices="tripinfo_NW_17 ssm_NW_17" vType="cars" speedFactor="0.79" vaporized=""/>
    <tripinfo id="NW_20" depart="69.00" departLane="5_1_1" departPos="5.10" departSpeed="0.00" departDelay="0.00" arrival="150.50" arrivalLane="1_2_2" arrivalPos="186.40" arrivalSpeed="12.66" duration="81.50" routeLength="379.43" waitingTime="30.00" waitingCount="3" stopTime="0.00" timeLoss="51.68" rerouteNo="0" devices="tripinfo_NW_20 ssm_NW_20" vType="cars" speedFactor="1.06" vaporized=""/>
    <tripinfo id="EW_4" depart="62.00" departLane="4_1_2" departPos="5.10" departSpeed="0.00" departDelay="0.00" arrival="165.50" arrivalLane="1_2_2" arrivalPos="186.40" arrivalSpeed="12.50" duration="103.50" routeLength="395.15" waitingTime="63.00" waitingCount="1" stopTime="0.00" timeLoss="73.10" rerouteNo="0" devices="tripinfo_EW_4 ssm_EW_4" vType="cars" speedFactor="0.95" vaporized=""/>
    <tripinfo id="WE_8" depart="78.00" departLane="2_1_2" departPos="5.10" departSpeed="0.00" departDelay="0.00" arrival="166.00" arrivalLane="1_4_2" arrivalPos="186.40" arrivalSpeed="12.92" duration="88.00" routeLength="395.15" waitingTime="47.00" waitingCount="1" stopTime="0.00" timeLoss="57.24" rerouteNo="0" devices="tripinfo_WE_8 ssm_WE_8" vType="cars" speedFactor="1.01" vaporized=""/>
    <tripinfo id="EW_5" depart="82.00" departLane="4_1_2" departPos="5.10" departSpeed="0.00" departDelay="0.00" arrival="168.00" arrivalLane="1_2_2" arrivalPos="186.40" arrivalSpeed="11.92" duration="86.00" routeLength="395.15" waitingTime="40.50" waitingCount="1" stopTime="0.00" timeLoss="55.57" rerouteNo="0" devices="tripinfo_EW_5 ssm_EW_5" vType="cars" speedFactor="1.04" vaporized=""/>
    <tripinfo id="WE_9" depart="83.00" departLane="2_1_2" departPos="5.10" departSpeed="0.00" departDelay="0.00" arrival="169.00" arrivalLane="1_4_2" arrivalPos="186.40" arrivalSpeed="12.88" duration="86.00" routeLength="395.15" waitingTime="39.50" waitingCount="1" stopTime="0.00" timeLoss="55.45" rerouteNo="0" devices="tripinfo_WE_9 ssm_WE_9" vType="cars" speedFactor="1.08" vaporized=""/>
    <tripinfo id="EW_6" depart="91.00" departLane="4_1_2" departPos="5.10" departSpeed="0.00" departDelay="0.00" arrival="170.50" arrivalLane="1_2_2" arrivalPos="186.40" arrivalSpeed="12.76" duration="79.50" routeLength="395.15" waitingTime="33.00" waitingCount="1" stopTime="0.00" timeLoss="48.95" rerouteNo="0" devices="tripinfo_EW_6 ssm_EW_6" vType="cars" speedFactor="1.00" vaporized=""/>
    <tripinfo id="WE_10" depart="86.00" departLane="2_1_2" departPos="5.10" departSpeed="0.00" departDelay="2.00" arrival="171.00" arrivalLane="1_4_2" arrivalPos="186.40" arrivalSpeed="11.56" duration="85.00" routeLength="395.15" waitingTime="37.00" waitingCount="1" stopTime="0.00" timeLoss="54.31" rerouteNo="0" devices="tripinfo_WE_10 ssm_WE_10" vType="cars" speedFactor="1.13" vaporized=""/>
    <tripinfo id="WE_11" depart="89.00" departLane="2_1_2" departPos="5.10" departSpeed="0.00" departDelay="4.00" arrival="172.50" arrivalLane="1_4_2" arrivalPos="186.40" arrivalSpeed="11.69" duration="83.50" routeLength="395.15" waitingTime="35.00" waitingCount="1" stopTime="0.00" timeLoss="53.08" rerouteNo="0" devices="tripinfo_WE_11 ssm_WE_11" vType="cars" speedFactor="1.05" vaporized=""/>
    <tripinfo id="EW_7" depart="96.00" departLane="4_1_2" departPos="5.10" departSpeed="0.00" departDelay="0.00" arrival="172.50" arrivalLane="1_2_2" arrivalPos="186.40" arrivalSpeed="11.53" duration="76.50" routeLength="395.15" waitingTime="29.50" waitingCount="1" stopTime="0.00" timeLoss="45.78" rerouteNo="0" devices="tripinfo_EW_7 ssm_EW_7" vType="cars" speedFactor="0.98" vaporized=""/>
    <personinfo id="person_NS_w.3" depart="16.50" type="DEFAULT_PEDTYPE" speedFactor="1.23" duration="156.50" waitingTime="0.00" timeLoss="26.57" traveltime="156.50">
        <walk depart="16.50" departPos="100.00" arrival="173.00" arrivalPos="93.20" duration="156.50" routeLength="221.25" timeLoss="26.57" maxSpeed="1.70"/>
    </personinfo>
    <tripinfo id="EW_8" depart="98.50" departLane="4_1_2" departPos="5.10" departSpeed="0.00" departDelay="0.50" arrival="174.50" arrivalLane="1_2_2" arrivalPos="186.40" arrivalSpeed="12.52" duration="76.00" routeLength="395.15" waitingTime="27.50" waitingCount="1" stopTime="0.00" timeLoss="45.20" rerouteNo="0" devices="tripinfo_EW_8 ssm_EW_8" vType="cars" speedFactor="0.96" vaporized=""/>
    <tripinfo id="WE_12" depart="98.00" departLane="2_1_2" departPos="5.10" departSpeed="0.00" departDelay="0.00" arrival="175.00" arrivalLane="1_4_2" arrivalPos="186.40" arrivalSpeed="12.08" duration="77.00" routeLength="395.15" waitingTime="29.00" waitingCount="1" stopTime="0.00" timeLoss="46.18" rerouteNo="0" devices="tripinfo_WE_12 ssm_WE_12" vType="cars" speedFactor="0.83" vaporized=""/>
    <tripinfo id="EW_9" depart="108.00" departLane="4_1_2" departPos="5.10" departSpeed="0.00" departDelay="0.00" arrival="176.00" arrivalLane="1_2_2" arrivalPos="186.40" arrivalSpeed="12.99" duration="68.00" routeLength="395.15" waitingTime="19.00" waitingCount="1" stopTime="0.00" timeLoss="37.56" rerouteNo="0" devices="tripinfo_EW_9 ssm_EW_9" vType="cars" speedFactor="0.91" vaporized=""/>
    <tripinfo id="WE_13" depart="121.00" departLane="2_1_2" departPos="5.10" departSpeed="0.00" departDelay="0.00" arrival="177.00" arrivalLane="1_4_2" arrivalPos="186.40" arrivalSpeed="11.82" duration="56.00" routeLength="395.15" waitingTime="6.50" waitingCount="2" stopTime="0.00" timeLoss="25.17" rerouteNo="0" devices="tripinfo_WE_13 ssm_WE_13" vType="cars" speedFactor="1.05" vaporized=""/>
    <personinfo id="person_SN_e.1" depart="30.50" type="DEFAULT_PEDTYPE" speedFactor="1.14" duration="148.00" waitingTime="0.00" timeLoss="8.20" traveltime="148.00">
        <walk depart="30.50" departPos="100.00" arrival="178.50" arrivalPos="93.20" duration="148.00" routeLength="221.24" timeLoss="8.20" maxSpeed="1.58"/>
    </personinfo>
    <tripinfo id="EW_10" depart="112.00" departLane="4_1_2" departPos="5.10" departSpeed="0.00" departDelay="0.00" arrival="178.50" arrivalLane="1_2_2" arrivalPos="186.40" arrivalSpeed="11.72" duration="66.50" routeLength="395.15" waitingTime="17.00" waitingCount="1" stopTime="0.00" timeLoss="35.77" rerouteNo="0" devices="tripinfo_EW_10 ssm_EW_10" vType="cars" speedFactor="1.12" vaporized=""/>
    <tripinfo id="WE_14" depart="124.00" departLane="2_1_2" departPos="5.10" departSpeed="0.00" departDelay="1.00" arrival="178.50" arrivalLane="1_4_2" arrivalPos="186.40" arrivalSpeed="11.70" duration="54.50" routeLength="395.15" waitingTime="5.00" waitingCount="1" stopTime="0.00" timeLoss="24.03" rerouteNo="0" devices="tripinfo_WE_14 ssm_WE_14" vType="cars" speedFactor="1.04" vaporized=""/>
    <personinfo id="person_NS_w.5" depart="19.50" type="DEFAULT_PEDTYPE" speedFactor="1.12" duration="160.00" waitingTime="0.00" timeLoss="17.71" traveltime="160.00">
        <walk depart="19.50" departPos="100.00" arrival="179.50" arrivalPos="93.20" duration="160.00" routeLength="221.25" timeLoss="17.71" maxSpeed="1.55"/>
    </personinfo>
    <tripinfo id="EW_11" depart="115.00" departLane="4_1_2" departPos="5.10" departSpeed="0.00" departDelay="2.00" arrival="180.00" arrivalLane="1_2_2" arrivalPos="186.40" arrivalSpeed="11.90" duration="65.00" routeLength="395.15" waitingTime="15.00" waitingCount="1" stopTime="0.00" timeLoss="34.54" rerouteNo="0" devices="tripinfo_EW_11 ssm_EW_11" vType="cars" speedFactor="0.98" vaporized=""/>
    <tripinfo id="WE_15" depart="132.00" departLane="2_1_2" departPos="5.10" departSpeed="0.00" departDelay="0.00" arrival="180.50" arrivalLane="1_4_2" arrivalPos="186.40" arrivalSpeed="11.50" duration="48.50" routeLength="395.15" waitingTime="0.00" waitingCount="0" stopTime="0.00" timeLoss="18.04" rerouteNo="0" devices="tripinfo_WE_15 ssm_WE_15" vType="cars" speedFactor="1.10" vaporized=""/>
    <tripinfo id="EW_12" depart="119.00" departLane="4_1_2" departPos="5.10" departSpeed="0.00" departDelay="0.00" arrival="182.00" arrivalLane="1_2_2" arrivalPos="186.40" arrivalSpeed="12.12" duration="63.00" routeLength="395.15" waitingTime="13.00" waitingCount="1" stopTime="0.00" timeLoss="32.37" rerouteNo="0" devices="tripinfo_EW_12 ssm_EW_12" vType="cars" speedFactor="0.99" vaporized=""/>
    <tripinfo id="WE_16" depart="135.00" departLane="2_1_2" departPos="5.10" departSpeed="0.00" departDelay="0.00" arrival="182.50" arrivalLane="1_4_2" arrivalPos="186.40" arrivalSpeed="12.31" duration="47.50" routeLength="395.15" waitingTime="0.00" waitingCount="0" stopTime="0.00" timeLoss="16.92" rerouteNo="0" devices="tripinfo_WE_16 ssm_WE_16" vType="cars" speedFactor="1.09" vaporized=""/>
    <tripinfo id="WE_17" depart="138.00" departLane="2_1_2" departPos="5.10" departSpeed="0.00" departDelay="1.00" arrival="184.50" arrivalLane="1_4_2" arrivalPos="186.40" arrivalSpeed="12.33" duration="46.50" routeLength="395.15" waitingTime="0.00" waitingCount="0" stopTime="0.00" timeLoss="15.72" rerouteNo="0" devices="tripinfo_WE_17 ssm_WE_17" vType="cars" speedFactor="0.98" vaporized=""/>
    <tripinfo id="EN_26" depart="99.00" departLane="4_1_1" departPos="5.10" departSpeed="0.00" departDelay="0.00" arrival="187.00" arrivalLane="1_5_1" arrivalPos="186.40" arrivalSpeed="11.59" duration="88.00" routeLength="379.42" waitingTime="44.50" waitingCount="2" stopTime="0.00" timeLoss="57.80" rerouteNo="0" devices="tripinfo_EN_26 ssm_EN_26" vType="cars" speedFactor="0.97" vaporized=""/>
    <personinfo id="person_NS_w.2" depart="16.50" type="DEFAULT_PEDTYPE" speedFactor="1.03" duration="171.00" waitingTime="0.00" timeLoss="16.42" traveltime="171.00">
        <walk depart="16.50" departPos="100.00" arrival="187.50" arrivalPos="93.20" duration="171.00" routeLength="221.25" timeLoss="16.42" maxSpeed="1.43"/>
    </personinfo>
    <tripinfo id="WS_22" depart="79.00" departLane="2_1_1" departPos="5.10" departSpeed="0.00" departDelay="0.00" arrival="188.50" arrivalLane="1_3_1" arrivalPos="186.40" arrivalSpeed="12.75" duration="109.50" routeLength="379.43" waitingTime="65.00" waitingCount="3" stopTime="0.00" timeLoss="79.59" rerouteNo="0" devices="tripinfo_WS_22 ssm_WS_22" vType="cars" speedFactor="1.02" vaporized=""/>
    <tripinfo id="EN_31" depart="117.00" departLane="4_1_1" departPos="5.10" departSpeed="0.00" departDelay="0.00" arrival="189.00" arrivalLane="1_5_1" arrivalPos="186.40" arrivalSpeed="11.55" duration="72.00" routeLength="379.42" waitingTime="23.50" waitingCount="2" stopTime="0.00" timeLoss="41.86" rerouteNo="0" devices="tripinfo_EN_31 ssm_EN_31" vType="cars" speedFactor="0.86" vaporized=""/>
    <tripinfo id="WS_38" depart="133.00" departLane="2_1_1" departPos="5.10" departSpeed="0.00" departDelay="0.00" arrival="191.00" arrivalLane="1_3_2" arrivalPos="186.40" arrivalSpeed="12.18" duration="58.00" routeLength="379.43" waitingTime="8.50" waitingCount="2" stopTime="0.00" timeLoss="27.86" rerouteNo="0" devices="tripinfo_WS_38 ssm_WS_38" vType="cars" speedFactor="1.00" vaporized=""/>
    <personinfo id="person_NS_w.9" depart="43.50" type="DEFAULT_PEDTYPE" speedFactor="1.16" duration="150.00" waitingTime="0.00" timeLoss="13.18" traveltime="150.00">
        <walk depart="43.50" departPos="100.00" arrival="193.50" arrivalPos="93.20" duration="150.00" routeLength="221.25" timeLoss="13.18" maxSpeed="1.62"/>
    </personinfo>
    <personinfo id="person_NS_w.0" depart="3.50" type="DEFAULT_PEDTYPE" speedFactor="0.96" duration="191.00" waitingTime="0.00" timeLoss="25.33" traveltime="191.00">
        <walk depart="3.50" departPos="100.00" arrival="194.50" arrivalPos="93.20" duration="191.00" routeLength="221.25" timeLoss="25.33" maxSpeed="1.34"/>
    </personinfo>
    <personinfo id="person_NS_w.4" depart="19.00" type="DEFAULT_PEDTYPE" speedFactor="0.98" duration="177.50" waitingTime="0.00" timeLoss="15.48" traveltime="177.50">
        <walk depart="19.00" departPos="100.00" arrival="196.50" arrivalPos="93.20" duration="177.50" routeLength="221.25" timeLoss="15.48" maxSpeed="1.37"/>
    </personinfo>
    <tripinfo id="ES_40" depart="135.00" departLane="4_1_3" departPos="5.10" departSpeed="0.00" departDelay="0.00" arrival="197.00" arrivalLane="1_3_2" arrivalPos="186.40" arrivalSpeed="11.91" duration="62.00" routeLength="392.21" waitingTime="21.50" waitingCount="1" stopTime="0.00" timeLoss="31.17" rerouteNo="0" devices="tripinfo_ES_40 ssm_ES_40" vType="cars" speedFactor="0.99" vaporized=""/>
    <tripinfo id="WN_34" depart="123.00" departLane="2_1_3" departPos="5.10" departSpeed="0.00" departDelay="0.00" arrival="198.00" arrivalLane="1_5_2" arrivalPos="186.40" arrivalSpeed="12.23" duration="75.00" routeLength="392.21" waitingTime="34.00" waitingCount="1" stopTime="0.00" timeLoss="43.83" rerouteNo="0" devices="tripinfo_WN_34 ssm_WN_34" vType="cars" speedFactor="0.84" vaporized=""/>
    <personinfo id="person_NS_w.1" depart="9.50" type="DEFAULT_PEDTYPE" speedFactor="0.96" duration="189.00" waitingTime="0.00" timeLoss="23.01" traveltime="189.00">
        <walk depart="9.50" departPos="100.00" arrival="198.50" arrivalPos="93.20" duration="189.00" routeLength="221.25" timeLoss="23.01" maxSpeed="1.33"/>
    </personinfo>
    <personinfo id="person_SN_e.0" depart="23.50" type="DEFAULT_PEDTYPE" speedFactor="0.93" duration="183.00" waitingTime="0.00" timeLoss="10.87" traveltime="183.00">
        <walk depart="23.50" departPos="100.00" arrival="206.50" arrivalPos="93.20" duration="183.00" routeLength="221.24" timeLoss="10.87" maxSpeed="1.29"/>
    </personinfo>
    <personinfo id="person_SN_e.3" depart="45.50" type="DEFAULT_PEDTYPE" speedFactor="1.06" duration="162.50" waitingTime="0.00" timeLoss="11.70" traveltime="162.50">