<?xml version="1.0" encoding="UTF-8"?>

<!-- generated on 2025-03-15 13:56:03 by Eclipse SUMO GUI Version 1.20.0
<configuration xmlns:xsi="http://www.w3.org/2001/XMLSchema-instance" xsi:noNamespaceSchemaLocation="http://sumo.dlr.de/xsd/sumoConfiguration.xsd">

    <input>
        <net-file value="/home/naderian/Desktop/Shakiba/MMSVCC/environment/network_model/single_intersection_pedestrian_X.net.xml"/>
        <route-files value="/home/naderian/Desktop/Shakiba/MMSVCC/environment/network_model/single_intersection.rou.xml"/>
        <additional-files value="/home/naderian/Desktop/Shakiba/MMSVCC/environment/network_model/single_intersection.add_actuated.xml"/>
    </input>

    <output>
        <queue-output value="/home/naderian/Desktop/Shakiba/MMSVCC/environment/simulation_data/single_intersection/queues_actuated_symmetric_pene_100.xml"/>
        <tripinfo-output value="/home/naderian/Desktop/Shakiba/MMSVCC/environment/simulation_data/single_intersection/tripinfo_actuated_symmetric_pene_100.xml"/>
    </output>

    <time>
        <begin value="0"/>
        <step-length value="0.5"/>
    </time>

    <processing>
        <waiting-time-memory value="1000"/>
    </processing>

    <report>
        <verbose value="true"/>
        <no-step-log value="true"/>
    </report>

    <traci_server>
        <remote-port value="37545"/>
    </traci_server>

    <gui_only>
        <start value="true"/>
    </gui_only>

</configuration>
-->

<tripinfos xmlns:xsi="http://www.w3.org/2001/XMLSchema-instance" xsi:noNamespaceSchemaLocation="http://sumo.dlr.de/xsd/tripinfo_file.xsd">
    <tripinfo id="SN_0" depart="0.00" departLane="3_1_2" departPos="5.10" departSpeed="0.00" departDelay="0.00" arrival="35.50" arrivalLane="1_5_1" arrivalPos="186.40" arrivalSpeed="11.82" duration="35.50" routeLength="395.15" waitingTime="0.00" waitingCount="0" stopTime="0.00" timeLoss="4.91" rerouteNo="0" devices="tripinfo_SN_0" vType="cars" speedFactor="0.95" vaporized=""/>
    <tripinfo id="NS_1" depart="1.00" departLane="5_1_2" departPos="5.10" departSpeed="0.00" departDelay="0.00" arrival="38.00" arrivalLane="1_3_1" arrivalPos="186.40" arrivalSpeed="12.76" duration="37.00" routeLength="395.15" waitingTime="0.00" waitingCount="0" stopTime="0.00" timeLoss="6.18" rerouteNo="0" devices="tripinfo_NS_1" vType="cars" speedFactor="1.05" vaporized=""/>
    <tripinfo id="SN_2" depart="5.00" departLane="3_1_2" departPos="5.10" departSpeed="0.00" departDelay="0.00" arrival="40.00" arrivalLane="1_5_1" arrivalPos="186.40" arrivalSpeed="11.54" duration="35.00" routeLength="395.15" waitingTime="0.00" waitingCount="0" stopTime="0.00" timeLoss="4.54" rerouteNo="0" devices="tripinfo_SN_2" vType="cars" speedFactor="1.06" vaporized=""/>
    <tripinfo id="SE_4" depart="9.00" departLane="3_1_1" departPos="5.10" departSpeed="0.00" departDelay="0.00" arrival="47.50" arrivalLane="1_4_1" arrivalPos="186.40" arrivalSpeed="12.55" duration="38.50" routeLength="379.42" waitingTime="0.00" waitingCount="0" stopTime="0.00" timeLoss="7.89" rerouteNo="0" devices="tripinfo_SE_4" vType="cars" speedFactor="0.85" vaporized=""/>
    <tripinfo id="NS_5" depart="11.00" departLane="5_1_2" departPos="5.10" departSpeed="0.00" departDelay="0.00" arrival="48.00" arrivalLane="1_3_1" arrivalPos="186.40" arrivalSpeed="12.97" duration="37.00" routeLength="395.15" waitingTime="0.00" waitingCount="0" stopTime="0.00" timeLoss="6.29" rerouteNo="0" devices="tripinfo_NS_5" vType="cars" speedFactor="1.09" vaporized=""/>
    <tripinfo id="NS_8" depart="17.00" departLane="5_1_2" departPos="5.10" departSpeed="0.00" departDelay="0.00" arrival="53.50" arrivalLane="1_3_1" arrivalPos="186.40" arrivalSpeed="12.62" duration="36.50" routeLength="395.15" waitingTime="0.00" waitingCount="0" stopTime="0.00" timeLoss="5.81" rerouteNo="0" devices="tripinfo_NS_8" vType="cars" speedFactor="1.12" vaporized=""/>
    <tripinfo id="SN_9" depart="18.00" departLane="3_1_2" departPos="5.10" departSpeed="0.00" departDelay="0.00" arrival="53.50" arrivalLane="1_5_1" arrivalPos="186.40" arrivalSpeed="12.53" duration="35.50" routeLength="395.15" waitingTime="0.00" waitingCount="0" stopTime="0.00" timeLoss="4.83" rerouteNo="0" devices="tripinfo_SN_9" vType="cars" speedFactor="0.91" vaporized=""/>
    <tripinfo id="NS_11" depart="20.00" departLane="5_1_2" departPos="5.10" departSpeed="0.00" departDelay="0.00" arrival="56.50" arrivalLane="1_3_1" arrivalPos="186.40" arrivalSpeed="12.99" duration="36.50" routeLength="395.15" waitingTime="0.00" waitingCount="0" stopTime="0.00" timeLoss="5.78" rerouteNo="0" devices="tripinfo_NS_11" vType="cars" speedFactor="0.87" vaporized=""/>
    <tripinfo id="SN_12" depart="25.00" departLane="3_1_2" departPos="5.10" departSpeed="0.00" departDelay="0.00" arrival="60.00" arrivalLane="1_5_1" arrivalPos="186.40" arrivalSpeed="12.92" duration="35.00" routeLength="395.15" waitingTime="0.00" waitingCount="0" stopTime="0.00" timeLoss="4.54" rerouteNo="0" devices="tripinfo_SN_12" vType="cars" speedFactor="0.94" vaporized=""/>
    <tripinfo id="NS_13" depart="26.00" departLane="5_1_2" departPos="5.10" departSpeed="0.00" departDelay="0.00" arrival="61.50" arrivalLane="1_3_1" arrivalPos="186.40" arrivalSpeed="12.73" duration="35.50" routeLength="395.15" waitingTime="0.00" waitingCount="0" stopTime="0.00" timeLoss="5.02" rerouteNo="0" devices="tripinfo_NS_13" vType="cars" speedFactor="1.00" vaporized=""/>
    <tripinfo id="SN_15" depart="29.00" departLane="3_1_2" departPos="5.10" departSpeed="0.00" departDelay="0.00" arrival="63.50" arrivalLane="1_5_1" arrivalPos="186.40" arrivalSpeed="12.95" duration="34.50" routeLength="395.15" waitingTime="0.00" waitingCount="0" stopTime="0.00" timeLoss="4.02" rerouteNo="0" devices="tripinfo_SN_15" vType="cars" speedFactor="1.09" vaporized=""/>
    <tripinfo id="NS_14" depart="29.00" departLane="5_1_2" departPos="5.10" departSpeed="0.00" departDelay="2.00" arrival="65.00" arrivalLane="1_3_1" arrivalPos="186.40" arrivalSpeed="12.78" duration="36.00" routeLength="395.15" waitingTime="0.00" waitingCount="0" stopTime="0.00" timeLoss="5.37" rerouteNo="0" devices="tripinfo_NS_14" vType="cars" speedFactor="0.96" vaporized=""/>
    <tripinfo id="NS_16" depart="32.00" departLane="5_1_2" departPos="5.10" departSpeed="0.00" departDelay="2.00" arrival="68.00" arrivalLane="1_3_1" arrivalPos="186.40" arrivalSpeed="12.63" duration="36.00" routeLength="395.15" waitingTime="0.00" waitingCount="0" stopTime="0.00" timeLoss="5.49" rerouteNo="0" devices="tripinfo_NS_16" vType="cars" speedFactor="0.85" vaporized=""/>
    <tripinfo id="SN_17" depart="33.00" departLane="3_1_2" departPos="5.10" departSpeed="0.00" departDelay="0.00" arrival="69.50" arrivalLane="1_5_1" arrivalPos="186.40" arrivalSpeed="11.64" duration="36.50" routeLength="395.15" waitingTime="0.00" waitingCount="0" stopTime="0.00" timeLoss="5.99" rerouteNo="0" devices="tripinfo_SN_17" vType="cars" speedFactor="1.22" vaporized=""/>
    <tripinfo id="SN_18" depart="36.00" departLane="3_1_2" departPos="5.10" departSpeed="0.00" departDelay="0.00" arrival="72.00" arrivalLane="1_5_1" arrivalPos="186.40" arrivalSpeed="11.78" duration="36.00" routeLength="395.15" waitingTime="0.00" waitingCount="0" stopTime="0.00" timeLoss="5.23" rerouteNo="0" devices="tripinfo_SN_18" vType="cars" speedFactor="1.07" vaporized=""/>
    <tripinfo id="SE_19" depart="39.00" departLane="3_1_1" departPos="5.10" departSpeed="0.00" departDelay="0.00" arrival="75.00" arrivalLane="1_4_1" arrivalPos="186.40" arrivalSpeed="12.65" duration="36.00" routeLength="379.42" waitingTime="0.00" waitingCount="0" stopTime="0.00" timeLoss="6.19" rerouteNo="0" devices="tripinfo_SE_19" vType="cars" speedFactor="1.06" vaporized=""/>
    <tripinfo id="SN_20" depart="40.00" departLane="3_1_2" departPos="5.10" departSpeed="0.00" departDelay="0.00" arrival="77.00" arrivalLane="1_5_1" arrivalPos="186.40" arrivalSpeed="11.87" duration="37.00" routeLength="395.15" waitingTime="0.00" waitingCount="0" stopTime="0.00" timeLoss="6.33" rerouteNo="0" devices="tripinfo_SN_20" vType="cars" speedFactor="0.97" vaporized=""/>
    <tripinfo id="EN_10" depart="20.00" departLane="4_1_1" departPos="5.10" departSpeed="0.00" departDelay="0.00" arrival="87.50" arrivalLane="1_5_1" arrivalPos="186.40" arrivalSpeed="12.96" duration="67.50" routeLength="379.42" waitingTime="26.50" waitingCount="1" stopTime="0.00" timeLoss="37.23" rerouteNo="0" devices="tripinfo_EN_10" vType="cars" speedFactor="0.92" vaporized=""/>
    <tripinfo id="WE_1" depart="12.00" departLane="2_1_2" departPos="5.10" departSpeed="0.00" departDelay="0.00" arrival="104.50" arrivalLane="1_4_1" arrivalPos="186.40" arrivalSpeed="12.03" duration="92.50" routeLength="395.15" waitingTime="53.00" waitingCount="1" stopTime="0.00" timeLoss="62.05" rerouteNo="0" devices="tripinfo_WE_1" vType="cars" speedFactor="1.14" vaporized=""/>
    <tripinfo id="EW_0" depart="22.00" departLane="4_1_2" departPos="5.10" departSpeed="0.00" departDelay="0.00" arrival="105.00" arrivalLane="1_2_2" arrivalPos="186.40" arrivalSpeed="11.71" duration="83.00" routeLength="395.15" waitingTime="43.00" waitingCount="1" stopTime="0.00" timeLoss="52.45" rerouteNo="0" devices="tripinfo_EW_0" vType="cars" speedFactor="1.13" vaporized=""/>
    <tripinfo id="EW_2" depart="46.00" departLane="4_1_2" departPos="5.10" departSpeed="0.00" departDelay="0.00" arrival="105.00" arrivalLane="1_2_1" arrivalPos="186.40" arrivalSpeed="12.61" duration="59.00" routeLength="395.15" waitingTime="12.50" waitingCount="1" stopTime="0.00" timeLoss="28.16" rerouteNo="0" devices="tripinfo_EW_2" vType="cars" speedFactor="0.99" vaporized=""/>
    <tripinfo id="WE_2" depart="22.00" departLane="2_1_2" departPos="5.10" departSpeed="0.00" departDelay="0.00" arrival="106.00" arrivalLane="1_4_2" arrivalPos="186.40" arrivalSpeed="12.43" duration="84.00" routeLength="395.15" waitingTime="41.00" waitingCount="1" stopTime="0.00" timeLoss="53.57" rerouteNo="0" devices="tripinfo_WE_2" vType="cars" speedFactor="0.98" vaporized=""/>
    <tripinfo id="WE_0" depart="1.00" departLane="2_1_2" departPos="5.10" departSpeed="0.00" departDelay="0.00" arrival="106.50" arrivalLane="1_4_1" arrivalPos="186.40" arrivalSpeed="12.41" duration="105.50" routeLength="395.15" waitingTime="64.00" waitingCount="1" stopTime="0.00" timeLoss="74.77" rerouteNo="0" devices="tripinfo_WE_0" vType="cars" speedFactor="1.09" vaporized=""/>
    <tripinfo id="EW_1" depart="42.00" departLane="4_1_2" departPos="5.10" departSpeed="0.00" departDelay="0.00" arrival="107.00" arrivalLane="1_2_2" arrivalPos="186.40" arrivalSpeed="12.43" duration="65.00" routeLength="395.15" waitingTime="20.00" waitingCount="1" stopTime="0.00" timeLoss="34.34" rerouteNo="0" devices="tripinfo_EW_1" vType="cars" speedFactor="1.06" vaporized=""/>
    <tripinfo id="EW_3" depart="59.00" departLane="4_1_2" departPos="5.10" departSpeed="0.00" departDelay="0.00" arrival="107.50" arrivalLane="1_2_1" arrivalPos="186.40" arrivalSpeed="11.53" duration="48.50" routeLength="395.15" waitingTime="0.50" waitingCount="1" stopTime="0.00" timeLoss="17.94" rerouteNo="0" devices="tripinfo_EW_3" vType="cars" speedFactor="1.15" vaporized=""/>
    <tripinfo id="WS_3" depart="7.00" departLane="2_1_1" departPos="5.10" departSpeed="0.00" departDelay="0.00" arrival="108.00" arrivalLane="1_3_1" arrivalPos="186.40" arrivalSpeed="12.92" duration="101.00" routeLength="379.43" waitingTime="56.00" waitingCount="2" stopTime="0.00" timeLoss="70.73" rerouteNo="0" devices="tripinfo_WS_3" vType="cars" speedFactor="0.93" vaporized=""/>
    <tripinfo id="WE_3" depart="27.00" departLane="2_1_2" departPos="5.10" departSpeed="0.00" departDelay="0.00" arrival="108.50" arrivalLane="1_4_2" arrivalPos="186.40" arrivalSpeed="12.27" duration="81.50" routeLength="395.15" waitingTime="38.00" waitingCount="1" stopTime="0.00" timeLoss="50.87" rerouteNo="0" devices="tripinfo_WE_3" vType="cars" speedFactor="0.95" vaporized=""/>
    <tripinfo id="EW_4" depart="62.00" departLane="4_1_2" departPos="5.10" departSpeed="0.00" departDelay="0.00" arrival="110.00" arrivalLane="1_2_1" arrivalPos="186.40" arrivalSpeed="12.13" duration="48.00" routeLength="395.15" waitingTime="1.00" waitingCount="1" stopTime="0.00" timeLoss="17.30" rerouteNo="0" devices="tripinfo_EW_4" vType="cars" speedFactor="1.15" vaporized=""/>
    <tripinfo id="WE_4" depart="50.00" departLane="2_1_2" departPos="5.10" departSpeed="0.00" departDelay="0.00" arrival="111.00" arrivalLane="1_4_1" arrivalPos="186.40" arrivalSpeed="12.94" duration="61.00" routeLength="395.15" waitingTime="16.50" waitingCount="1" stopTime="0.00" timeLoss="30.22" rerouteNo="0" devices="tripinfo_WE_4" vType="cars" speedFactor="0.94" vaporized=""/>
    <tripinfo id="EW_5" depart="76.00" departLane="4_1_2" departPos="5.10" departSpeed="0.00" departDelay="0.00" arrival="112.00" arrivalLane="1_2_1" arrivalPos="186.40" arrivalSpeed="12.39" duration="36.00" routeLength="395.15" waitingTime="0.00" waitingCount="0" stopTime="0.00" timeLoss="5.57" rerouteNo="0" devices="tripinfo_EW_5" vType="cars" speedFactor="0.83" vaporized=""/>
    <tripinfo id="WE_5" depart="75.00" departLane="2_1_2" departPos="5.10" departSpeed="0.00" departDelay="0.00" arrival="113.00" arrivalLane="1_4_2" arrivalPos="186.40" arrivalSpeed="12.43" duration="38.00" routeLength="395.15" waitingTime="0.00" waitingCount="0" stopTime="0.00" timeLoss="7.31" rerouteNo="0" devices="tripinfo_WE_5" vType="cars" speedFactor="0.91" vaporized=""/>
    <tripinfo id="WE_6" depart="78.50" departLane="2_1_2" departPos="5.10" departSpeed="0.00" departDelay="1.50" arrival="115.00" arrivalLane="1_4_1" arrivalPos="186.40" arrivalSpeed="12.77" duration="36.50" routeLength="395.15" waitingTime="0.00" waitingCount="0" stopTime="0.00" timeLoss="5.65" rerouteNo="0" devices="tripinfo_WE_6" vType="cars" speedFactor="1.05" vaporized=""/>
    <tripinfo id="WS_6" depart="14.00" departLane="2_1_1" departPos="5.10" departSpeed="0.00" departDelay="0.00" arrival="125.50" arrivalLane="1_3_1" arrivalPos="186.40" arrivalSpeed="12.71" duration="111.50" routeLength="379.43" waitingTime="63.50" waitingCount="2" stopTime="0.00" timeLoss="81.48" rerouteNo="0" devices="tripinfo_WS_6" vType="cars" speedFactor="0.96" vaporized=""/>
    <tripinfo id="NW_21" depart="53.00" departLane="5_1_1" departPos="5.10" departSpeed="0.00" departDelay="0.00" arrival="130.50" arrivalLane="1_2_1" arrivalPos="186.40" arrivalSpeed="11.98" duration="77.50" routeLength="379.43" waitingTime="37.50" waitingCount="1" stopTime="0.00" timeLoss="47.66" rerouteNo="0" devices="tripinfo_NW_21" vType="cars" speedFactor="1.01" vaporized=""/>
    <tripinfo id="WN_7" depart="16.00" departLane="2_1_3" departPos="5.10" departSpeed="0.00" departDelay="0.00" arrival="133.00" arrivalLane="1_5_2" arrivalPos="186.40" arrivalSpeed="12.71" duration="117.00" routeLength="392.22" waitingTime="75.00" waitingCount="1" stopTime="0.00" timeLoss="85.97" rerouteNo="0" devices="tripinfo_WN_7" vType="cars" speedFactor="0.92" vaporized=""/>
    <tripinfo id="NW_23" depart="69.00" departLane="5_1_1" departPos="5.10" departSpeed="0.00" departDelay="0.00" arrival="134.00" arrivalLane="1_2_1" arrivalPos="186.40" arrivalSpeed="12.68" duration="65.00" routeLength="379.43" waitingTime="21.00" waitingCount="1" stopTime="0.00" timeLoss="34.48" rerouteNo="0" devices="tripinfo_NW_23" vType="cars" speedFactor="0.89" vaporized=""/>
    <tripinfo id="ES_24" depart="73.00" departLane="4_1_3" departPos="5.10" departSpeed="0.00" departDelay="0.00" arrival="136.00" arrivalLane="1_3_2" arrivalPos="186.40" arrivalSpeed="11.51" duration="63.00" routeLength="392.22" waitingTime="18.00" waitingCount="1" stopTime="0.00" timeLoss="32.23" rerouteNo="0" devices="tripinfo_ES_24" vType="cars" speedFactor="1.15" vaporized=""/>
    <tripinfo id="WN_35" depart="99.00" departLane="2_1_3" departPos="5.10" departSpeed="0.00" departDelay="0.00" arrival="136.50" arrivalLane="1_5_2" arrivalPos="186.40" arrivalSpeed="11.89" duration="37.50" routeLength="392.22" waitingTime="0.00" waitingCount="0" stopTime="0.00" timeLoss="6.55" rerouteNo="0" devices="tripinfo_WN_35" vType="cars" speedFactor="0.97" vaporized=""/>
    <tripinfo id="NS_29" depart="83.00" departLane="5_1_2" departPos="5.10" departSpeed="0.00" departDelay="0.00" arrival="148.50" arrivalLane="1_3_1" arrivalPos="186.40" arrivalSpeed="12.21" duration="65.50" routeLength="395.15" waitingTime="18.00" waitingCount="2" stopTime="0.00" timeLoss="35.03" rerouteNo="0" devices="tripinfo_NS_29" vType="cars" speedFactor="1.14" vaporized=""/>
    <tripinfo id="SN_25" depart="74.00" departLane="3_1_2" departPos="5.10" departSpeed="0.00" departDelay="0.00" arrival="150.00" arrivalLane="1_5_1" arrivalPos="186.40" arrivalSpeed="12.65" duration="76.00" routeLength="395.15" waitingTime="34.50" waitingCount="1" stopTime="0.00" timeLoss="45.54" rerouteNo="0" devices="tripinfo_SN_25" vType="cars" speedFactor="0.94" vaporized=""/>
    <tripinfo id="NS_22" depart="66.00" departLane="5_1_2" departPos="5.10" departSpeed="0.00" departDelay="0.00" arrival="150.50" arrivalLane="1_3_1" arrivalPos="186.40" arrivalSpeed="11.52" duration="84.50" routeLength="395.15" waitingTime="43.00" waitingCount="1" stopTime="0.00" timeLoss="53.94" rerouteNo="0" devices="tripinfo_NS_22" vType="cars" speedFactor="0.96" vaporized=""/>
    <tripinfo id="SN_28" depart="81.00" departLane="3_1_2" departPos="5.10" departSpeed="0.00" departDelay="0.00" arrival="150.50" arrivalLane="1_5_1" arrivalPos="186.40" arrivalSpeed="12.36" duration="69.50" routeLength="395.15" waitingTime="28.00" waitingCount="1" stopTime="0.00" timeLoss="38.91" rerouteNo="0" devices="tripinfo_SN_28" vType="cars" speedFactor="1.06" vaporized=""/>
    <tripinfo id="NS_26" depart="75.00" departLane="5_1_2" departPos="5.10" departSpeed="0.00" departDelay="0.00" arrival="152.00" arrivalLane="1_3_2" arrivalPos="186.40" arrivalSpeed="12.41" duration="77.00" routeLength="395.15" waitingTime="31.00" waitingCount="1" stopTime="0.00" timeLoss="46.51" rerouteNo="0" devices="tripinfo_NS_26" vType="cars" speedFactor="1.27" vaporized=""/>
    <tripinfo id="SN_30" depart="83.50" departLane="3_1_2" departPos="5.10" departSpeed="0.00" departDelay="0.50" arrival="152.50" arrivalLane="1_5_2" arrivalPos="186.40" arrivalSpeed="12.37" duration="69.00" routeLength="395.15" waitingTime="22.50" waitingCount="1" stopTime="0.00" timeLoss="38.27" rerouteNo="0" devices="tripinfo_SN_30" vType="cars" speedFactor="1.16" vaporized=""/>
    <tripinfo id="NS_32" depart="87.00" departLane="5_1_2" departPos="5.10" departSpeed="0.00" departDelay="0.00" arrival="154.00" arrivalLane="1_3_2" arrivalPos="186.40" arrivalSpeed="12.40" duration="67.00" routeLength="395.15" waitingTime="20.50" waitingCount="1" stopTime="0.00" timeLoss="36.37" rerouteNo="0" devices="tripinfo_NS_32" vType="cars" speedFactor="0.90" vaporized=""/>
    <tripinfo id="SN_33" depart="90.00" departLane="3_1_2" departPos="5.10" departSpeed="0.00" departDelay="0.00" arrival="154.50" arrivalLane="1_5_2" arrivalPos="186.40" arrivalSpeed="12.36" duration="64.50" routeLength="395.15" waitingTime="17.00" waitingCount="1" stopTime="0.00" timeLoss="33.65" rerouteNo="0" devices="tripinfo_SN_33" vType="cars" speedFactor="1.03" vaporized=""/>
    <tripinfo id="SN_38" depart="107.00" departLane="3_1_2" departPos="5.10" departSpeed="0.00" departDelay="0.00" arrival="156.00" arrivalLane="1_5_2" arrivalPos="186.40" arrivalSpeed="12.81" duration="49.00" routeLength="395.15" waitingTime="3.00" waitingCount="1" stopTime="0.00" timeLoss="18.51" rerouteNo="0" devices="tripinfo_SN_38" vType="cars" speedFactor="0.89" vaporized=""/>
    <tripinfo id="NS_41" depart="111.00" departLane="5_1_2" departPos="5.10" departSpeed="0.00" departDelay="0.00" arrival="156.50" arrivalLane="1_3_2" arrivalPos="186.40" arrivalSpeed="12.88" duration="45.50" routeLength="395.15" waitingTime="0.00" waitingCount="0" stopTime="0.00" timeLoss="14.74" rerouteNo="0" devices="tripinfo_NS_41" vType="cars" speedFactor="0.87" vaporized=""/>
    <tripinfo id="SN_40" depart="110.00" departLane="3_1_2" departPos="5.10" departSpeed="0.00" departDelay="0.00" arrival="158.00" arrivalLane="1_5_2" arrivalPos="186.40" arrivalSpeed="12.76" duration="48.00" routeLength="395.15" waitingTime="0.00" waitingCount="0" stopTime="0.00" timeLoss="17.51" rerouteNo="0" devices="tripinfo_SN_40" vType="cars" speedFactor="1.01" vaporized=""/>
    <tripinfo id="NS_37" depart="105.00" departLane="5_1_2" departPos="5.10" departSpeed="0.00" departDelay="0.00" arrival="159.00" arrivalLane="1_3_2" arrivalPos="186.40" arrivalSpeed="12.63" duration="54.00" routeLength="395.15" waitingTime="3.00" waitingCount="2" stopTime="0.00" timeLoss="23.30" rerouteNo="0" devices="tripinfo_NS_37" vType="cars" speedFactor="0.91" vaporized=""/>
    <tripinfo id="NS_42" depart="122.00" departLane="5_1_2" departPos="5.10" departSpeed="0.00" departDelay="0.00" arrival="161.00" arrivalLane="1_3_2" arrivalPos="186.40" arrivalSpeed="12.67" duration="39.00" routeLength="395.15" waitingTime="0.00" waitingCount="0" stopTime="0.00" timeLoss="8.51" rerouteNo="0" devices="tripinfo_NS_42" vType="cars" speedFactor="0.94" vaporized=""/>
    <tripinfo id="SN_34" depart="97.00" departLane="3_1_2" departPos="5.10" departSpeed="0.00" departDelay="0.00" arrival="162.00" arrivalLane="1_5_2" arrivalPos="186.40" arrivalSpeed="11.81" duration="65.00" routeLength="395.15" waitingTime="11.50" waitingCount="1" stopTime="0.00" timeLoss="34.55" rerouteNo="0" devices="tripinfo_SN_34" vType="cars" speedFactor="1.03" vaporized=""/>
    <tripinfo id="SN_45" depart="128.00" departLane="3_1_2" departPos="5.10" departSpeed="0.00" departDelay="0.00" arrival="164.00" arrivalLane="1_5_1" arrivalPos="186.40" arrivalSpeed="11.56" duration="36.00" routeLength="395.15" waitingTime="0.00" waitingCount="0" stopTime="0.00" timeLoss="5.43" rerouteNo="0" devices="tripinfo_SN_45" vType="cars" speedFactor="0.98" vaporized=""/>
    <tripinfo id="SE_27" depart="78.00" departLane="3_1_1" departPos="5.10" departSpeed="0.00" departDelay="0.00" arrival="165.50" arrivalLane="1_4_1" arrivalPos="186.40" arrivalSpeed="12.25" duration="87.50" routeLength="379.42" waitingTime="41.00" waitingCount="2" stopTime="0.00" timeLoss="56.99" rerouteNo="0" devices="tripinfo_SE_27" vType="cars" speedFactor="0.93" vaporized=""/>
    <tripinfo id="NS_46" depart="131.00" departLane="5_1_2" departPos="5.10" departSpeed="0.00" departDelay="0.00" arrival="167.00" arrivalLane="1_3_2" arrivalPos="186.40" arrivalSpeed="12.02" duration="36.00" routeLength="395.15" waitingTime="0.00" waitingCount="0" stopTime="0.00" timeLoss="5.19" rerouteNo="0" devices="tripinfo_NS_46" vType="cars" speedFactor="1.02" vaporized=""/>
    <tripinfo id="SN_47" depart="132.00" departLane="3_1_2" departPos="5.10" departSpeed="0.00" departDelay="0.00" arrival="168.50" arrivalLane="1_5_1" arrivalPos="186.40" arrivalSpeed="12.63" duration="36.50" routeLength="395.15" waitingTime="0.00" waitingCount="0" stopTime="0.00" timeLoss="5.69" rerouteNo="0" devices="tripinfo_SN_47" vType="cars" speedFactor="0.98" vaporized=""/>
    <tripinfo id="SN_31" depart="86.50" departLane="3_1_2" departPos="5.10" departSpeed="0.00" departDelay="2.50" arrival="169.00" arrivalLane="1_5_2" arrivalPos="186.40" arrivalSpeed="11.95" duration="82.50" routeLength="395.15" waitingTime="30.00" waitingCount="2" stopTime="0.00" timeLoss="51.98" rerouteNo="0" devices="tripinfo_SN_31" vType="cars" speedFactor="1.10" vaporized=""/>
    <tripinfo id="NS_49" depart="134.00" departLane="5_1_2" departPos="5.10" departSpeed="0.00" departDelay="0.00" arrival="170.00" arrivalLane="1_3_2" arrivalPos="186.40" arrivalSpeed="12.48" duration="36.00" routeLength="395.15" waitingTime="0.00" waitingCount="0" stopTime="0.00" timeLoss="5.24" rerouteNo="0" devices="tripinfo_NS_49" vType="cars" speedFactor="1.13" vaporized=""/>
    <tripinfo id="SN_50" depart="135.00" departLane="3_1_2" departPos="5.10" departSpeed="0.00" departDelay="1.00" arrival="170.50" arrivalLane="1_5_1" arrivalPos="186.40" arrivalSpeed="12.94" duration="35.50" routeLength="395.15" waitingTime="0.00" waitingCount="0" stopTime="0.00" timeLoss="4.98" rerouteNo="0" devices="tripinfo_SN_50" vType="cars" speedFactor="0.96" vaporized=""/>
    <tripinfo id="NW_36" depart="101.00" departLane="5_1_1" departPos="5.10" departSpeed="0.00" departDelay="0.00" arrival="174.00" arrivalLane="1_2_1" arrivalPos="186.40" arrivalSpeed="12.14" duration="73.00" routeLength="379.43" waitingTime="26.00" waitingCount="3" stopTime="0.00" timeLoss="42.73" rerouteNo="0" devices="tripinfo_NW_36" vType="cars" speedFactor="0.98" vaporized=""/>
    <personinfo id="person_WE_s.2" depart="32.12" type="DEFAULT_PEDTYPE" speedFactor="1.20" duration="144.50" waitingTime="0.00" timeLoss="11.85" traveltime="144.50">
        <walk depart="32.50" departPos="100.00" arrival="177.00" arrivalPos="93.20" duration="144.50" routeLength="221.17" timeLoss="11.85" maxSpeed="1.67"/>
    </personinfo>
    <tripinfo id="SE_51" depart="135.00" departLane="3_1_1" departPos="5.10" departSpeed="0.00" departDelay="0.00" arrival="180.00" arrivalLane="1_4_1" arrivalPos="186.40" arrivalSpeed="12.89" duration="45.00" routeLength="379.42" waitingTime="4.50" waitingCount="1" stopTime="0.00" timeLoss="14.81" rerouteNo="0" devices="tripinfo_SE_51" vType="cars" speedFactor="1.05" vaporized=""/>
    <personinfo id="person_WE_s.0" depart="0.96" type="DEFAULT_PEDTYPE" speedFactor="0.98" duration="179.50" waitingTime="0.00" timeLoss="16.21" traveltime="179.50">
        <walk depart="1.00" departPos="100.00" arrival="180.50" arrivalPos="93.20" duration="179.50" routeLength="221.17" timeLoss="16.21" maxSpeed="1.35"/>
    </personinfo>
    <tripinfo id="SW_43" depart="122.00" departLane="3_1_3" departPos="5.10" departSpeed="0.00" departDelay="0.00" arrival="184.50" arrivalLane="1_2_2" arrivalPos="186.40" arrivalSpeed="11.50" duration="62.50" routeLength="392.22" waitingTime="19.00" waitingCount="1" stopTime="0.00" timeLoss="31.51" rerouteNo="0" devices="tripinfo_SW_43" vType="cars" speedFactor="0.99" vaporized=""/>
    <personinfo id="person_WE_s.1" depart="27.07" type="DEFAULT_PEDTYPE" speedFactor="1.08" duration="158.00" waitingTime="0.00" timeLoss="10.92" traveltime="158.00">
        <walk depart="27.50" departPos="100.00" arrival="185.50" arrivalPos="93.20" duration="158.00" routeLength="221.17" timeLoss="10.92" maxSpeed="1.50"/>
    </personinfo>
    <tripinfo id="SW_52" depart="140.00" departLane="3_1_3" departPos="5.10" departSpeed="0.00" departDelay="0.00" arrival="186.00" arrivalLane="1_2_2" arrivalPos="186.40" arrivalSpeed="12.20" duration="46.00" routeLength="392.22" waitingTime="0.50" waitingCount="1" stopTime="0.00" timeLoss="15.54" rerouteNo="0" devices="tripinfo_SW_52" vType="cars" speedFactor="1.11" vaporized=""/>
    <personinfo id="person_EW_n.0" depart="13.77" type="DEFAULT_PEDTYPE" speedFactor="0.93" duration="181.00" waitingTime="0.00" timeLoss="9.23" traveltime="181.00">
        <walk depart="14.00" departPos="100.00" arrival="195.00" arrivalPos="93.20" duration="181.00" routeLength="221.32" timeLoss="9.23" maxSpeed="1.29"/>
    </personinfo>
    <tripinfo id="WE_7" depart="89.00" departLane="2_1_2" departPos="5.10" departSpeed="0.00" departDelay="0.00" arrival="200.00" arrivalLane="1_4_2" arrivalPos="186.40" arrivalSpeed="12.74" duration="111.00" routeLength="395.15" waitingTime="68.50" waitingCount="1" stopTime="0.00" timeLoss="80.41" rerouteNo="0" devices="tripinfo_WE_7" vType="cars" speedFactor="0.91" vaporized=""/>
    <tripinfo id="WE_8" depart="92.00" departLane="2_1_2" departPos="5.10" departSpeed="0.00" departDelay="0.00" arrival="200.00" arrivalLane="1_4_1" arrivalPos="186.40" arrivalSpeed="12.23" duration="108.00" routeLength="395.15" waitingTime="66.00" waitingCount="1" stopTime="0.00" timeLoss="77.20" rerouteNo="0" devices="tripinfo_WE_8" vType="cars" speedFactor="0.85" vaporized=""/>
    <tripinfo id="EW_6" depart="92.00" departLane="4_1_2" departPos="5.10" departSpeed="0.00" departDelay="0.00" arrival="200.00" arrivalLane="1_2_1" arrivalPos="186.40" arrivalSpeed="12.68" duration="108.00" routeLength="395.15" waitingTime="67.00" waitingCount="1" stopTime="0.00" timeLoss="77.26" rerouteNo="0" devices="tripinfo_EW_6" vType="cars" speedFactor="1.04" vaporized=""/>
    <personinfo id="person_NE_diag.7" depart="35.98" type="DEFAULT_PEDTYPE" speedFactor="1.26" duration="164.50" waitingTime="0.00" timeLoss="36.42" traveltime="164.50">
        <walk depart="36.00" departPos="100.00" arrival="200.50" arrivalPos="93.20" duration="164.50" routeLength="223.30" timeLoss="36.42" maxSpeed="1.74"/>
    </personinfo>
    <tripinfo id="EW_7" depart="111.00" departLane="4_1_2" departPos="5.10" departSpeed="0.00" departDelay="0.00" arrival="200.50" arrivalLane="1_2_1" arrivalPos="186.40" arrivalSpeed="12.30" duration="89.50" routeLength="395.15" waitingTime="48.50" waitingCount="1" stopTime="0.00" timeLoss="58.97" rerouteNo="0" devices="tripinfo_EW_7" vType="cars" speedFactor="0.97" vaporized=""/>
    <personinfo id="person_SW_diag.4" depart="33.84" type="DEFAULT_PEDTYPE" speedFactor="1.22" duration="168.00" waitingTime="0.00" timeLoss="35.68" traveltime="168.00">
        <walk depart="34.00" departPos="100.00" arrival="202.00" arrivalPos="93.20" duration="168.00" routeLength="223.30" timeLoss="35.68" maxSpeed="1.69"/>
    </personinfo>
    <tripinfo id="WE_10" depart="116.00" departLane="2_1_2" departPos="5.10" departSpeed="0.00" departDelay="0.00" arrival="202.00" arrivalLane="1_4_2" arrivalPos="186.40" arrivalSpeed="12.54" duration="86.00" routeLength="395.15" waitingTime="39.50" waitingCount="1" stopTime="0.00" timeLoss="55.20" rerouteNo="0" devices="tripinfo_WE_10" vType="cars" speedFactor="1.18" vaporized=""/>