<?xml version="1.0" encoding="UTF-8"?>

<!-- generated on 2025-03-21 19:14:48 by Eclipse SUMO GUI Version 1.20.0
<configuration xmlns:xsi="http://www.w3.org/2001/XMLSchema-instance" xsi:noNamespaceSchemaLocation="http://sumo.dlr.de/xsd/sumoConfiguration.xsd">

    <input>
        <net-file value="/home/naderian/Desktop/Shakiba/MMSVCC/environment/network_model/single_intersection_pedestrian_X.net.xml"/>
        <route-files value="/home/naderian/Desktop/Shakiba/MMSVCC/environment/network_model/single_intersection.rou.xml"/>
        <additional-files value="/home/naderian/Desktop/Shakiba/MMSVCC/environment/network_model/single_intersection.add_actuated.xml"/>
    </input>

    <output>
        <queue-output value="/home/naderian/Desktop/Shakiba/MMSVCC/environment/simulation_data/single_intersection/queues_actuated_asymmetric_pene_100.xml"/>
        <tripinfo-output value="/home/naderian/Desktop/Shakiba/MMSVCC/environment/simulation_data/single_intersection/tripinfo_actuated_asymmetric_pene_100.xml"/>
    </output>

    <time>
        <begin value="0"/>
        <step-length value="0.5"/>
    </time>

    <processing>
        <waiting-time-memory value="1000"/>
    </processing>

    <report>
        <verbose value="true"/>
        <no-step-log value="true"/>
    </report>

    <traci_server>
        <remote-port value="52591"/>
    </traci_server>

    <gui_only>
        <start value="true"/>
    </gui_only>

</configuration>
-->

<tripinfos xmlns:xsi="http://www.w3.org/2001/XMLSchema-instance" xsi:noNamespaceSchemaLocation="http://sumo.dlr.de/xsd/tripinfo_file.xsd">
    <tripinfo id="SN_0" depart="0.00" departLane="3_1_2" departPos="5.10" departSpeed="0.00" departDelay="0.00" arrival="35.50" arrivalLane="1_5_1" arrivalPos="186.40" arrivalSpeed="11.82" duration="35.50" routeLength="395.15" waitingTime="0.00" waitingCount="0" stopTime="0.00" timeLoss="4.99" rerouteNo="0" devices="tripinfo_SN_0" vType="cars" speedFactor="1.04" vaporized=""/>
    <tripinfo id="NS_1" depart="1.00" departLane="5_1_2" departPos="5.10" departSpeed="0.00" departDelay="0.00" arrival="38.00" arrivalLane="1_3_1" arrivalPos="186.40" arrivalSpeed="12.65" duration="37.00" routeLength="395.15" waitingTime="0.00" waitingCount="0" stopTime="0.00" timeLoss="6.30" rerouteNo="0" devices="tripinfo_NS_1" vType="cars" speedFactor="0.95" vaporized=""/>
    <tripinfo id="SN_2" depart="5.00" departLane="3_1_2" departPos="5.10" departSpeed="0.00" departDelay="0.00" arrival="40.00" arrivalLane="1_5_1" arrivalPos="186.40" arrivalSpeed="11.68" duration="35.00" routeLength="395.15" waitingTime="0.00" waitingCount="0" stopTime="0.00" timeLoss="4.48" rerouteNo="0" devices="tripinfo_SN_2" vType="cars" speedFactor="0.85" vaporized=""/>
    <tripinfo id="NE_6" depart="20.00" departLane="5_1_3" departPos="5.10" departSpeed="0.00" departDelay="0.00" arrival="65.50" arrivalLane="1_4_2" arrivalPos="186.40" arrivalSpeed="12.93" duration="45.50" routeLength="392.22" waitingTime="4.00" waitingCount="1" stopTime="0.00" timeLoss="14.85" rerouteNo="0" devices="tripinfo_NE_6" vType="cars" speedFactor="1.01" vaporized=""/>
    <tripinfo id="EW_0" depart="32.00" departLane="4_1_2" departPos="5.10" departSpeed="0.00" departDelay="0.00" arrival="80.50" arrivalLane="1_2_1" arrivalPos="186.40" arrivalSpeed="12.64" duration="48.50" routeLength="395.15" waitingTime="8.50" waitingCount="1" stopTime="0.00" timeLoss="17.98" rerouteNo="0" devices="tripinfo_EW_0" vType="cars" speedFactor="0.84" vaporized=""/>
    <tripinfo id="WE_1" depart="10.00" departLane="2_1_2" departPos="5.10" departSpeed="0.00" departDelay="0.00" arrival="81.00" arrivalLane="1_4_1" arrivalPos="186.40" arrivalSpeed="12.84" duration="71.00" routeLength="395.15" waitingTime="30.50" waitingCount="1" stopTime="0.00" timeLoss="40.21" rerouteNo="0" devices="tripinfo_WE_1" vType="cars" speedFactor="1.10" vaporized=""/>
    <tripinfo id="EW_1" depart="37.00" departLane="4_1_2" departPos="5.10" departSpeed="0.00" departDelay="0.00" arrival="81.50" arrivalLane="1_2_2" arrivalPos="186.40" arrivalSpeed="12.94" duration="44.50" routeLength="395.15" waitingTime="3.50" waitingCount="1" stopTime="0.00" timeLoss="13.71" rerouteNo="0" devices="tripinfo_EW_1" vType="cars" speedFactor="1.00" vaporized=""/>
    <tripinfo id="WE_0" depart="1.00" departLane="2_1_2" departPos="5.10" departSpeed="0.00" departDelay="0.00" arrival="82.50" arrivalLane="1_4_1" arrivalPos="186.40" arrivalSpeed="12.96" duration="81.50" routeLength="395.15" waitingTime="40.00" waitingCount="1" stopTime="0.00" timeLoss="50.89" rerouteNo="0" devices="tripinfo_WE_0" vType="cars" speedFactor="0.86" vaporized=""/>
    <tripinfo id="WS_3" depart="7.00" departLane="2_1_1" departPos="5.10" departSpeed="0.00" departDelay="0.00" arrival="83.00" arrivalLane="1_3_1" arrivalPos="186.40" arrivalSpeed="12.40" duration="76.00" routeLength="379.43" waitingTime="32.00" waitingCount="1" stopTime="0.00" timeLoss="46.07" rerouteNo="0" devices="tripinfo_WS_3" vType="cars" speedFactor="0.93" vaporized=""/>
    <tripinfo id="WE_2" depart="12.50" departLane="2_1_2" departPos="5.10" departSpeed="0.00" departDelay="0.50" arrival="83.00" arrivalLane="1_4_2" arrivalPos="186.40" arrivalSpeed="11.83" duration="70.50" routeLength="395.15" waitingTime="26.00" waitingCount="1" stopTime="0.00" timeLoss="40.02" rerouteNo="0" devices="tripinfo_WE_2" vType="cars" speedFactor="1.17" vaporized=""/>
    <tripinfo id="EW_2" depart="42.00" departLane="4_1_2" departPos="5.10" departSpeed="0.00" departDelay="0.00" arrival="84.50" arrivalLane="1_2_1" arrivalPos="186.40" arrivalSpeed="11.52" duration="42.50" routeLength="395.15" waitingTime="0.00" waitingCount="0" stopTime="0.00" timeLoss="11.99" rerouteNo="0" devices="tripinfo_EW_2" vType="cars" speedFactor="1.13" vaporized=""/>
    <tripinfo id="WE_3" depart="19.00" departLane="2_1_2" departPos="5.10" departSpeed="0.00" departDelay="0.00" arrival="85.00" arrivalLane="1_4_1" arrivalPos="186.40" arrivalSpeed="12.65" duration="66.00" routeLength="395.15" waitingTime="22.50" waitingCount="1" stopTime="0.00" timeLoss="35.37" rerouteNo="0" devices="tripinfo_WE_3" vType="cars" speedFactor="0.90" vaporized=""/>
    <tripinfo id="WS_5" depart="16.00" departLane="2_1_1" departPos="5.10" departSpeed="0.00" departDelay="0.00" arrival="86.00" arrivalLane="1_3_1" arrivalPos="186.40" arrivalSpeed="12.97" duration="70.00" routeLength="379.43" waitingTime="24.50" waitingCount="1" stopTime="0.00" timeLoss="39.85" rerouteNo="0" devices="tripinfo_WS_5" vType="cars" speedFactor="1.02" vaporized=""/>
    <tripinfo id="WE_5" depart="29.00" departLane="2_1_2" departPos="5.10" departSpeed="0.00" departDelay="0.00" arrival="87.00" arrivalLane="1_4_2" arrivalPos="186.40" arrivalSpeed="12.28" duration="58.00" routeLength="395.15" waitingTime="12.50" waitingCount="1" stopTime="0.00" timeLoss="27.48" rerouteNo="0" devices="tripinfo_WE_5" vType="cars" speedFactor="0.96" vaporized=""/>
    <tripinfo id="WE_4" depart="26.00" departLane="2_1_2" departPos="5.10" departSpeed="0.00" departDelay="0.00" arrival="88.00" arrivalLane="1_4_1" arrivalPos="186.40" arrivalSpeed="12.38" duration="62.00" routeLength="395.15" waitingTime="16.00" waitingCount="1" stopTime="0.00" timeLoss="31.28" rerouteNo="0" devices="tripinfo_WE_4" vType="cars" speedFactor="1.00" vaporized=""/>
    <tripinfo id="WE_6" depart="31.50" departLane="2_1_2" departPos="5.10" departSpeed="0.00" departDelay="1.50" arrival="90.00" arrivalLane="1_4_2" arrivalPos="186.40" arrivalSpeed="11.78" duration="58.50" routeLength="395.15" waitingTime="11.00" waitingCount="1" stopTime="0.00" timeLoss="27.68" rerouteNo="0" devices="tripinfo_WE_6" vType="cars" speedFactor="0.89" vaporized=""/>
    <tripinfo id="EW_3" depart="62.00" departLane="4_1_2" departPos="5.10" departSpeed="0.00" departDelay="0.00" arrival="97.50" arrivalLane="1_2_1" arrivalPos="186.40" arrivalSpeed="12.24" duration="35.50" routeLength="395.15" waitingTime="0.00" waitingCount="0" stopTime="0.00" timeLoss="4.99" rerouteNo="0" devices="tripinfo_EW_3" vType="cars" speedFactor="0.98" vaporized=""/>
    <tripinfo id="ES_4" depart="14.00" departLane="4_1_3" departPos="5.10" departSpeed="0.00" departDelay="0.00" arrival="108.50" arrivalLane="1_3_2" arrivalPos="186.40" arrivalSpeed="12.31" duration="94.50" routeLength="392.22" waitingTime="53.00" waitingCount="1" stopTime="0.00" timeLoss="63.95" rerouteNo="0" devices="tripinfo_ES_4" vType="cars" speedFactor="1.12" vaporized=""/>
    <tripinfo id="NS_7" depart="22.00" departLane="5_1_2" departPos="5.10" departSpeed="0.00" departDelay="0.00" arrival="125.00" arrivalLane="1_3_1" arrivalPos="186.40" arrivalSpeed="12.94" duration="103.00" routeLength="395.15" waitingTime="61.50" waitingCount="1" stopTime="0.00" timeLoss="72.60" rerouteNo="0" devices="tripinfo_NS_7" vType="cars" speedFactor="1.04" vaporized=""/>
    <tripinfo id="SN_8" depart="25.00" departLane="3_1_2" departPos="5.10" departSpeed="0.00" departDelay="0.00" arrival="125.00" arrivalLane="1_5_1" arrivalPos="186.40" arrivalSpeed="11.92" duration="100.00" routeLength="395.15" waitingTime="60.50" waitingCount="1" stopTime="0.00" timeLoss="69.56" rerouteNo="0" devices="tripinfo_SN_8" vType="cars" speedFactor="0.98" vaporized=""/>
    <tripinfo id="NS_12" depart="34.00" departLane="5_1_2" departPos="5.10" departSpeed="0.00" departDelay="0.00" arrival="125.50" arrivalLane="1_3_1" arrivalPos="186.40" arrivalSpeed="12.13" duration="91.50" routeLength="395.15" waitingTime="50.00" waitingCount="1" stopTime="0.00" timeLoss="60.96" rerouteNo="0" devices="tripinfo_NS_12" vType="cars" speedFactor="0.90" vaporized=""/>
    <tripinfo id="SN_10" depart="30.50" departLane="3_1_2" departPos="5.10" departSpeed="0.00" departDelay="1.50" arrival="126.50" arrivalLane="1_5_2" arrivalPos="186.40" arrivalSpeed="12.00" duration="96.00" routeLength="395.15" waitingTime="55.50" waitingCount="1" stopTime="0.00" timeLoss="65.29" rerouteNo="0" devices="tripinfo_SN_10" vType="cars" speedFactor="0.97" vaporized=""/>
    <tripinfo id="NS_17" depart="50.00" departLane="5_1_2" departPos="5.10" departSpeed="0.00" departDelay="0.00" arrival="128.00" arrivalLane="1_3_1" arrivalPos="186.40" arrivalSpeed="11.69" duration="78.00" routeLength="395.15" waitingTime="33.00" waitingCount="1" stopTime="0.00" timeLoss="47.21" rerouteNo="0" devices="tripinfo_NS_17" vType="cars" speedFactor="0.95" vaporized=""/>
    <tripinfo id="SN_9" depart="28.00" departLane="3_1_2" departPos="5.10" departSpeed="0.00" departDelay="2.00" arrival="128.50" arrivalLane="1_5_1" arrivalPos="186.40" arrivalSpeed="11.75" duration="100.50" routeLength="395.15" waitingTime="55.00" waitingCount="1" stopTime="0.00" timeLoss="70.02" rerouteNo="0" devices="tripinfo_SN_9" vType="cars" speedFactor="1.17" vaporized=""/>
    <tripinfo id="SN_11" depart="33.00" departLane="3_1_2" departPos="5.10" departSpeed="0.00" departDelay="3.00" arrival="128.50" arrivalLane="1_5_2" arrivalPos="186.40" arrivalSpeed="11.82" duration="95.50" routeLength="395.15" waitingTime="50.50" waitingCount="1" stopTime="0.00" timeLoss="64.77" rerouteNo="0" devices="tripinfo_SN_11" vType="cars" speedFactor="1.02" vaporized=""/>
    <tripinfo id="NS_27" depart="89.00" departLane="5_1_2" departPos="5.10" departSpeed="0.00" departDelay="0.00" arrival="129.50" arrivalLane="1_3_1" arrivalPos="186.40" arrivalSpeed="11.83" duration="40.50" routeLength="395.15" waitingTime="0.00" waitingCount="0" stopTime="0.00" timeLoss="10.07" rerouteNo="0" devices="tripinfo_NS_27" vType="cars" speedFactor="0.90" vaporized=""/>
    <tripinfo id="SN_14" depart="38.00" departLane="3_1_2" departPos="5.10" departSpeed="0.00" departDelay="0.00" arrival="130.00" arrivalLane="1_5_2" arrivalPos="186.40" arrivalSpeed="12.84" duration="92.00" routeLength="395.15" waitingTime="46.00" waitingCount="1" stopTime="0.00" timeLoss="61.48" rerouteNo="0" devices="tripinfo_SN_14" vType="cars" speedFactor="0.96" vaporized=""/>
    <tripinfo id="NS_29" depart="92.00" departLane="5_1_2" departPos="5.10" departSpeed="0.00" departDelay="0.00" arrival="131.50" arrivalLane="1_3_2" arrivalPos="186.40" arrivalSpeed="12.10" duration="39.50" routeLength="395.15" waitingTime="0.00" waitingCount="0" stopTime="0.00" timeLoss="8.67" rerouteNo="0" devices="tripinfo_NS_29" vType="cars" speedFactor="1.02" vaporized=""/>
    <tripinfo id="SN_16" depart="41.00" departLane="3_1_2" departPos="5.10" departSpeed="0.00" departDelay="1.00" arrival="132.50" arrivalLane="1_5_1" arrivalPos="186.40" arrivalSpeed="12.62" duration="91.50" routeLength="395.15" waitingTime="44.00" waitingCount="1" stopTime="0.00" timeLoss="60.70" rerouteNo="0" devices="tripinfo_SN_16" vType="cars" speedFactor="0.93" vaporized=""/>
    <tripinfo id="SN_20" depart="60.00" departLane="3_1_2" departPos="5.10" departSpeed="0.00" departDelay="0.00" arrival="134.00" arrivalLane="1_5_2" arrivalPos="186.40" arrivalSpeed="12.49" duration="74.00" routeLength="395.15" waitingTime="27.00" waitingCount="1" stopTime="0.00" timeLoss="43.43" rerouteNo="0" devices="tripinfo_SN_20" vType="cars" speedFactor="0.83" vaporized=""/>
    <tripinfo id="SN_22" depart="75.00" departLane="3_1_2" departPos="5.10" departSpeed="0.00" departDelay="0.00" arrival="136.00" arrivalLane="1_5_1" arrivalPos="186.40" arrivalSpeed="12.52" duration="61.00" routeLength="395.15" waitingTime="11.50" waitingCount="1" stopTime="0.00" timeLoss="30.37" rerouteNo="0" devices="tripinfo_SN_22" vType="cars" speedFactor="0.86" vaporized=""/>
    <tripinfo id="NW_19" depart="53.00" departLane="5_1_1" departPos="5.10" departSpeed="0.00" departDelay="0.00" arrival="137.00" arrivalLane="1_2_1" arrivalPos="186.40" arrivalSpeed="12.80" duration="84.00" routeLength="379.43" waitingTime="39.00" waitingCount="2" stopTime="0.00" timeLoss="53.88" rerouteNo="0" devices="tripinfo_NW_19" vType="cars" speedFactor="1.00" vaporized=""/>
    <tripinfo id="SN_25" depart="84.00" departLane="3_1_2" departPos="5.10" departSpeed="0.00" departDelay="0.00" arrival="138.00" arrivalLane="1_5_2" arrivalPos="186.40" arrivalSpeed="12.96" duration="54.00" routeLength="395.15" waitingTime="6.00" waitingCount="1" stopTime="0.00" timeLoss="23.14" rerouteNo="0" devices="tripinfo_SN_25" vType="cars" speedFactor="1.06" vaporized=""/>
    <tripinfo id="NW_21" depart="69.00" departLane="5_1_1" departPos="5.10" departSpeed="0.00" departDelay="0.00" arrival="139.50" arrivalLane="1_2_1" arrivalPos="186.40" arrivalSpeed="12.82" duration="70.50" routeLength="379.43" waitingTime="21.00" waitingCount="2" stopTime="0.00" timeLoss="40.66" rerouteNo="0" devices="tripinfo_NW_21" vType="cars" speedFactor="1.07" vaporized=""/>
    <tripinfo id="SN_31" depart="99.00" departLane="3_1_2" departPos="5.10" departSpeed="0.00" departDelay="0.00" arrival="139.50" arrivalLane="1_5_1" arrivalPos="186.40" arrivalSpeed="12.62" duration="40.50" routeLength="395.15" waitingTime="0.00" waitingCount="0" stopTime="0.00" timeLoss="9.94" rerouteNo="0" devices="tripinfo_SN_31" vType="cars" speedFactor="0.98" vaporized=""/>
    <tripinfo id="SE_13" depart="36.00" departLane="3_1_1" departPos="5.10" departSpeed="0.00" departDelay="0.00" arrival="140.00" arrivalLane="1_4_1" arrivalPos="186.40" arrivalSpeed="12.67" duration="104.00" routeLength="379.42" waitingTime="53.50" waitingCount="3" stopTime="0.00" timeLoss="73.96" rerouteNo="0" devices="tripinfo_SE_13" vType="cars" speedFactor="1.13" vaporized=""/>
    <tripinfo id="SN_18" depart="50.00" departLane="3_1_2" departPos="5.10" departSpeed="0.00" departDelay="0.00" arrival="143.50" arrivalLane="1_5_2" arrivalPos="186.40" arrivalSpeed="12.61" duration="93.50" routeLength="395.15" waitingTime="35.00" waitingCount="1" stopTime="0.00" timeLoss="62.90" rerouteNo="0" devices="tripinfo_SN_18" vType="cars" speedFactor="0.99" vaporized=""/>
    <tripinfo id="SE_15" depart="39.00" departLane="3_1_1" departPos="5.10" departSpeed="0.00" departDelay="0.00" arrival="150.00" arrivalLane="1_4_1" arrivalPos="186.40" arrivalSpeed="12.02" duration="111.00" routeLength="379.42" waitingTime="53.00" waitingCount="4" stopTime="0.00" timeLoss="80.90" rerouteNo="0" devices="tripinfo_SE_15" vType="cars" speedFactor="0.99" vaporized=""/>
    <tripinfo id="NE_30" depart="92.00" departLane="5_1_3" departPos="5.10" departSpeed="0.00" departDelay="0.00" arrival="153.50" arrivalLane="1_4_2" arrivalPos="186.40" arrivalSpeed="12.24" duration="61.50" routeLength="392.22" waitingTime="19.50" waitingCount="1" stopTime="0.00" timeLoss="30.61" rerouteNo="0" devices="tripinfo_NE_30" vType="cars" speedFactor="0.97" vaporized=""/>
    <tripinfo id="SW_35" depart="123.00" departLane="3_1_3" departPos="5.10" departSpeed="0.00" departDelay="0.00" arrival="161.50" arrivalLane="1_2_2" arrivalPos="186.40" arrivalSpeed="12.09" duration="38.50" routeLength="392.22" waitingTime="0.00" waitingCount="0" stopTime="0.00" timeLoss="7.67" rerouteNo="0" devices="tripinfo_SW_35" vType="cars" speedFactor="0.95" vaporized=""/>
    <tripinfo id="EW_5" depart="129.00" departLane="4_1_2" departPos="5.10" departSpeed="0.00" departDelay="0.00" arrival="170.50" arrivalLane="1_2_2" arrivalPos="186.40" arrivalSpeed="12.82" duration="41.50" routeLength="395.15" waitingTime="0.00" waitingCount="0" stopTime="0.00" timeLoss="10.67" rerouteNo="0" devices="tripinfo_EW_5" vType="cars" speedFactor="1.06" vaporized=""/>
    <tripinfo id="WE_8" depart="78.00" departLane="2_1_2" departPos="5.10" departSpeed="0.00" departDelay="0.00" arrival="171.00" arrivalLane="1_4_1" arrivalPos="186.40" arrivalSpeed="12.06" duration="93.00" routeLength="395.15" waitingTime="50.50" waitingCount="1" stopTime="0.00" timeLoss="62.24" rerouteNo="0" devices="tripinfo_WE_8" vType="cars" speedFactor="0.86" vaporized=""/>
    <tripinfo id="EW_4" depart="124.00" departLane="4_1_2" departPos="5.10" departSpeed="0.00" departDelay="0.00" arrival="171.00" arrivalLane="1_2_1" arrivalPos="186.40" arrivalSpeed="12.81" duration="47.00" routeLength="395.15" waitingTime="4.50" waitingCount="1" stopTime="0.00" timeLoss="16.13" rerouteNo="0" devices="tripinfo_EW_4" vType="cars" speedFactor="0.93" vaporized=""/>
    <tripinfo id="WE_7" depart="67.00" departLane="2_1_2" departPos="5.10" departSpeed="0.00" departDelay="0.00" arrival="172.50" arrivalLane="1_4_1" arrivalPos="186.40" arrivalSpeed="12.57" duration="105.50" routeLength="395.15" waitingTime="62.00" waitingCount="1" stopTime="0.00" timeLoss="75.05" rerouteNo="0" devices="tripinfo_WE_7" vType="cars" speedFactor="0.93" vaporized=""/>
    <tripinfo id="WE_9" depart="109.00" departLane="2_1_2" departPos="5.10" departSpeed="0.00" departDelay="0.00" arrival="173.00" arrivalLane="1_4_2" arrivalPos="186.40" arrivalSpeed="12.21" duration="64.00" routeLength="395.15" waitingTime="18.00" waitingCount="1" stopTime="0.00" timeLoss="33.60" rerouteNo="0" devices="tripinfo_WE_9" vType="cars" speedFactor="0.95" vaporized=""/>
    <personinfo id="person_WE_s.0" depart="1.92" type="DEFAULT_PEDTYPE" speedFactor="0.98" duration="172.50" waitingTime="0.00" timeLoss="9.21" traveltime="172.50">
        <walk depart="2.00" departPos="100.00" arrival="174.50" arrivalPos="93.20" duration="172.50" routeLength="221.17" timeLoss="9.21" maxSpeed="1.35"/>
    </personinfo>
    <tripinfo id="WE_10" depart="117.00" departLane="2_1_2" departPos="5.10" departSpeed="0.00" departDelay="0.00" arrival="175.50" arrivalLane="1_4_2" arrivalPos="186.40" arrivalSpeed="11.65" duration="58.50" routeLength="395.15" waitingTime="10.00" waitingCount="1" stopTime="0.00" timeLoss="28.09" rerouteNo="0" devices="tripinfo_WE_10" vType="cars" speedFactor="0.92" vaporized=""/>
    <tripinfo id="WE_11" depart="120.50" departLane="2_1_2" departPos="5.10" departSpeed="0.00" departDelay="2.50" arrival="177.50" arrivalLane="1_4_1" arrivalPos="186.40" arrivalSpeed="12.32" duration="57.00" routeLength="395.15" waitingTime="9.00" waitingCount="1" stopTime="0.00" timeLoss="26.59" rerouteNo="0" devices="tripinfo_WE_11" vType="cars" speedFactor="1.07" vaporized=""/>
    <tripinfo id="WE_14" depart="128.00" departLane="2_1_2" departPos="5.10" departSpeed="0.00" departDelay="5.00" arrival="180.00" arrivalLane="1_4_1" arrivalPos="186.40" arrivalSpeed="12.76" duration="52.00" routeLength="395.15" waitingTime="4.50" waitingCount="1" stopTime="0.00" timeLoss="21.36" rerouteNo="0" devices="tripinfo_WE_14" vType="cars" speedFactor="1.09" vaporized=""/>
    <personinfo id="person_ES_diag.0" depart="6.72" type="DEFAULT_PEDTYPE" speedFactor="1.22" duration="173.50" waitingTime="0.00" timeLoss="36.19" traveltime="173.50">
        <walk depart="7.00" departPos="100.00" arrival="180.50" arrivalPos="93.20" duration="173.50" routeLength="233.56" timeLoss="36.19" maxSpeed="1.70"/>
    </personinfo>
    <personinfo id="person_SW_diag.0" depart="13.61" type="DEFAULT_PEDTYPE" speedFactor="1.17" duration="167.00" waitingTime="0.00" timeLoss="29.16" traveltime="167.00">
        <walk depart="14.00" departPos="100.00" arrival="181.00" arrivalPos="93.20" duration="167.00" routeLength="223.30" timeLoss="29.16" maxSpeed="1.62"/>
    </personinfo>
    <tripinfo id="WS_23" depart="79.00" departLane="2_1_1" departPos="5.10" departSpeed="0.00" departDelay="0.00" arrival="181.00" arrivalLane="1_3_1" arrivalPos="186.40" arrivalSpeed="12.97" duration="102.00" routeLength="379.43" waitingTime="54.50" waitingCount="2" stopTime="0.00" timeLoss="72.22" rerouteNo="0" devices="tripinfo_WS_23" vType="cars" speedFactor="1.24" vaporized=""/>
    <tripinfo id="WE_15" depart="131.00" departLane="2_1_2" departPos="5.10" departSpeed="0.00" departDelay="5.00" arrival="182.00" arrivalLane="1_4_1" arrivalPos="186.40" arrivalSpeed="12.08" duration="51.00" routeLength="395.15" waitingTime="1.00" waitingCount="1" stopTime="0.00" timeLoss="20.35" rerouteNo="0" devices="tripinfo_WE_15" vType="cars" speedFactor="1.06" vaporized=""/>
    <tripinfo id="EW_6" depart="145.00" departLane="4_1_2" departPos="5.10" departSpeed="0.00" departDelay="0.00" arrival="182.00" arrivalLane="1_2_1" arrivalPos="186.40" arrivalSpeed="11.65" duration="37.00" routeLength="395.15" waitingTime="0.00" waitingCount="0" stopTime="0.00" timeLoss="6.20" rerouteNo="0" devices="tripinfo_EW_6" vType="cars" speedFactor="0.99" vaporized=""/>
    <tripinfo id="WE_17" depart="137.00" departLane="2_1_2" departPos="5.10" departSpeed="0.00" departDelay="3.00" arrival="183.50" arrivalLane="1_4_2" arrivalPos="186.40" arrivalSpeed="11.82" duration="46.50" routeLength="395.15" waitingTime="0.00" waitingCount="0" stopTime="0.00" timeLoss="16.09" rerouteNo="0" devices="tripinfo_WE_17" vType="cars" speedFactor="1.05" vaporized=""/>
    <tripinfo id="EW_7" depart="148.00" departLane="4_1_2" departPos="5.10" departSpeed="0.00" departDelay="2.00" arrival="184.00" arrivalLane="1_2_1" arrivalPos="186.40" arrivalSpeed="12.64" duration="36.00" routeLength="395.15" waitingTime="0.00" waitingCount="0" stopTime="0.00" timeLoss="5.45" rerouteNo="0" devices="tripinfo_EW_7" vType="cars" speedFactor="1.05" vaporized=""/>
    <tripinfo id="WS_28" depart="91.00" departLane="2_1_1" departPos="5.10" departSpeed="0.00" departDelay="0.00" arrival="185.50" arrivalLane="1_3_1" arrivalPos="186.40" arrivalSpeed="12.37" duration="94.50" routeLength="379.43" waitingTime="42.50" waitingCount="3" stopTime="0.00" timeLoss="64.54" rerouteNo="0" devices="tripinfo_WS_28" vType="cars" speedFactor="0.97" vaporized=""/>
    <tripinfo id="WE_18" depart="139.50" departLane="2_1_2" departPos="5.10" departSpeed="0.00" departDelay="1.50" arrival="185.50" arrivalLane="1_4_1" arrivalPos="186.40" arrivalSpeed="11.68" duration="46.00" routeLength="395.15" waitingTime="0.00" waitingCount="0" stopTime="0.00" timeLoss="15.40" rerouteNo="0" devices="tripinfo_WE_18" vType="cars" speedFactor="0.87" vaporized=""/>
    <personinfo id="person_SN_e.0" depart="18.06" type="DEFAULT_PEDTYPE" speedFactor="1.15" duration="168.00" waitingTime="0.00" timeLoss="29.32" traveltime="168.00">
        <walk depart="18.50" departPos="100.00" arrival="186.50" arrivalPos="93.20" duration="168.00" routeLength="221.24" timeLoss="29.32" maxSpeed="1.60"/>
    </personinfo>
    <tripinfo id="WE_19" depart="150.00" departLane="2_1_2" departPos="5.10" departSpeed="0.00" departDelay="0.00" arrival="187.50" arrivalLane="1_4_1" arrivalPos="186.40" arrivalSpeed="12.25" duration="37.50" routeLength="395.15" waitingTime="0.00" waitingCount="0" stopTime="0.00" timeLoss="6.67" rerouteNo="0" devices="tripinfo_WE_19" vType="cars" speedFactor="1.00" vaporized=""/>
    <personinfo id="person_NS_w.0" depart="2.40" type="DEFAULT_PEDTYPE" speedFactor="1.12" duration="185.50" waitingTime="0.00" timeLoss="43.33" traveltime="185.50">
        <walk depart="2.50" departPos="100.00" arrival="188.00" arrivalPos="93.20" duration="185.50" routeLength="221.25" timeLoss="43.33" maxSpeed="1.56"/>
    </personinfo>
    <tripinfo id="WS_32" depart="102.00" departLane="2_1_1" departPos="5.10" departSpeed="0.00" departDelay="0.00" arrival="188.00" arrivalLane="1_3_1" arrivalPos="186.40" arrivalSpeed="12.11" duration="86.00" routeLength="379.43" waitingTime="30.50" waitingCount="2" stopTime="0.00" timeLoss="55.85" rerouteNo="0" devices="tripinfo_WS_32" vType="cars" speedFactor="0.93" vaporized=""/>
    <personinfo id="person_NS_w.3" depart="26.46" type="DEFAULT_PEDTYPE" speedFactor="1.15" duration="162.00" waitingTime="0.00" timeLoss="23.22" traveltime="162.00">
        <walk depart="26.50" departPos="100.00" arrival="188.50" arrivalPos="93.20" duration="162.00" routeLength="221.25" timeLoss="23.22" maxSpeed="1.59"/>
    </personinfo>
    <tripinfo id="WE_20" depart="153.00" departLane="2_1_2" departPos="5.10" departSpeed="0.00" departDelay="2.00" arrival="189.50" arrivalLane="1_4_1" arrivalPos="186.40" arrivalSpeed="12.23" duration="36.50" routeLength="395.15" waitingTime="0.00" waitingCount="0" stopTime="0.00" timeLoss="5.70" rerouteNo="0" devices="tripinfo_WE_20" vType="cars" speedFactor="0.92" vaporized=""/>
    <tripinfo id="WE_12" depart="123.00" departLane="2_1_2" departPos="5.10" departSpeed="0.00" departDelay="4.00" arrival="191.00" arrivalLane="1_4_1" arrivalPos="186.40" arrivalSpeed="12.48" duration="68.00" routeLength="395.15" waitingTime="9.50" waitingCount="2" stopTime="0.00" timeLoss="37.43" rerouteNo="0" devices="tripinfo_WE_12" vType="cars" speedFactor="1.12" vaporized=""/>
    <tripinfo id="WE_13" depart="125.50" departLane="2_1_2" departPos="5.10" departSpeed="0.00" departDelay="5.50" arrival="193.00" arrivalLane="1_4_2" arrivalPos="186.40" arrivalSpeed="11.69" duration="67.50" routeLength="395.15" waitingTime="8.00" waitingCount="1" stopTime="0.00" timeLoss="36.80" rerouteNo="0" devices="tripinfo_WE_13" vType="cars" speedFactor="1.00" vaporized=""/>
    <personinfo id="person_NE_diag.0" depart="4.77" type="DEFAULT_PEDTYPE" speedFactor="1.01" duration="189.50" waitingTime="0.00" timeLoss="29.62" traveltime="189.50">
        <walk depart="5.00" departPos="100.00" arrival="194.50" arrivalPos="93.20" duration="189.50" routeLength="223.30" timeLoss="29.62" maxSpeed="1.40"/>
    </personinfo>
    <tripinfo id="EN_44" depart="156.00" departLane="4_1_1" departPos="5.10" departSpeed="0.00" departDelay="0.00" arrival="197.00" arrivalLane="1_5_1" arrivalPos="186.40" arrivalSpeed="11.98" duration="41.00" routeLength="379.42" waitingTime="3.00" waitingCount="1" stopTime="0.00" timeLoss="10.80" rerouteNo="0" devices="tripinfo_EN_44" vType="cars" speedFactor="0.94" vaporized=""/>
    <personinfo id="person_SN_e.2" depart="39.42" type="DEFAULT_PEDTYPE" speedFactor="1.04" duration="162.00" waitingTime="0.00" timeLoss="9.18" traveltime="162.00">
        <walk depart="39.50" departPos="100.00" arrival="201.50" arrivalPos="93.20" duration="162.00" routeLength="221.24" timeLoss="9.18" maxSpeed="1.45"/>
    </personinfo>
    <tripinfo id="SE_24" depart="83.00" departLane="3_1_1" departPos="5.10" departSpeed="0.00" departDelay="0.00" arrival="201.50" arrivalLane="1_4_1" arrivalPos="186.40" arrivalSpeed="12.72" duration="118.50" routeLength="379.42" waitingTime="59.50" waitingCount="2" stopTime="0.00" timeLoss="88.29" rerouteNo="0" devices="tripinfo_SE_24" vType="cars" speedFactor="1.03" vaporized=""/>
    <personinfo id="person_NS_w.1" depart="20.11" type="DEFAULT_PEDTYPE" speedFactor="1.00" duration="181.50" waitingTime="0.00" timeLoss="21.90" traveltime="181.50">
        <walk depart="20.50" departPos="100.00" arrival="202.00" arrivalPos="93.20" duration="181.50" routeLength="221.25" timeLoss="21.90" maxSpeed="1.39"/>
    </personinfo>
    <tripinfo id="WN_33" depart="110.00" departLane="2_1_3" departPos="5.10" departSpeed="0.00" departDelay="0.00" arrival="203.50" arrivalLane="1_5_2" arrivalPos="186.40" arrivalSpeed="12.76" duration="93.50" routeLength="392.22" waitingTime="51.00" waitingCount="1" stopTime="0.00" timeLoss="62.86" rerouteNo="0" devices="tripinfo_WN_33" vType="cars" speedFactor="0.98" vaporized=""/>
    <personinfo id="person_NS_w.2" depart="24.53" type="DEFAULT_PEDTYPE" speedFactor="0.92" duration="184.50" waitingTime="0.00" timeLoss="10.99" traveltime="184.50">
        <walk depart="25.00" departPos="100.00" arrival="209.50" arrivalPos="93.20" duration="184.50" routeLength="221.25" timeLoss="10.99" maxSpeed="1.28"/>
    </personinfo>
    <tripinfo id="WN_47" depart="173.00" departLane="2_1_3" departPos="5.10" departSpeed="0.00" departDelay="0.00" arrival="209.50" arrivalLane="1_5_2" arrivalPos="186.40" arrivalSpeed="11.89" duration="36.50" routeLength="392.22" waitingTime="0.00" waitingCount="0" stopTime="0.00" timeLoss="6.10" rerouteNo="0" devices="tripinfo_WN_47" vType="cars" speedFactor="1.13" vaporized=""/>
    <personinfo id="person_NS_w.4" depart="40.28" type="DEFAULT_PEDTYPE" speedFactor="1.02" duration="169.50" waitingTime="0.00" timeLoss="13.63" traveltime="169.50">
        <walk depart="40.50" departPos="100.00" arrival="210.00" arrivalPos="93.20" duration="169.50" routeLength="221.25" timeLoss="13.63" maxSpeed="1.42"/>
    </personinfo>