<?xml version="1.0" encoding="UTF-8"?>

<!-- generated on 2025-02-27 20:52:20 by Eclipse SUMO GUI Version 1.20.0
<configuration xmlns:xsi="http://www.w3.org/2001/XMLSchema-instance" xsi:noNamespaceSchemaLocation="http://sumo.dlr.de/xsd/sumoConfiguration.xsd">

    <input>
        <net-file value="/home/naderian/Desktop/Shakiba/CET593/environment/network_model/single_intersection_pedestrian_X.net.xml"/>
        <route-files value="/home/naderian/Desktop/Shakiba/CET593/environment/network_model/single_intersection.rou.xml"/>
        <additional-files value="/home/naderian/Desktop/Shakiba/CET593/environment/network_model/single_intersection.add_actuated.xml"/>
    </input>

    <output>
        <queue-output value="/home/naderian/Desktop/Shakiba/CET593/environment/simulation_data/single_intersection/queues_actuated_symmetric_pene_100.xml"/>
        <tripinfo-output value="/home/naderian/Desktop/Shakiba/CET593/environment/simulation_data/single_intersection/tripinfo_actuated_symmetric_pene_100.xml"/>
    </output>

    <time>
        <begin value="0"/>
        <step-length value="0.5"/>
    </time>

    <processing>
        <waiting-time-memory value="1000"/>
    </processing>

    <report>
        <verbose value="true"/>
        <no-step-log value="true"/>
    </report>

    <traci_server>
        <remote-port value="58929"/>
    </traci_server>

    <gui_only>
        <start value="true"/>
    </gui_only>

</configuration>
-->

<tripinfos xmlns:xsi="http://www.w3.org/2001/XMLSchema-instance" xsi:noNamespaceSchemaLocation="http://sumo.dlr.de/xsd/tripinfo_file.xsd">
    <tripinfo id="SN_0" depart="0.00" departLane="3_1_2" departPos="5.10" departSpeed="0.00" departDelay="0.00" arrival="35.50" arrivalLane="1_5_1" arrivalPos="186.40" arrivalSpeed="11.82" duration="35.50" routeLength="395.15" waitingTime="0.00" waitingCount="0" stopTime="0.00" timeLoss="4.99" rerouteNo="0" devices="tripinfo_SN_0" vType="cars" speedFactor="0.97" vaporized=""/>
    <tripinfo id="NS_1" depart="1.00" departLane="5_1_2" departPos="5.10" departSpeed="0.00" departDelay="0.00" arrival="38.00" arrivalLane="1_3_1" arrivalPos="186.40" arrivalSpeed="12.65" duration="37.00" routeLength="395.15" waitingTime="0.00" waitingCount="0" stopTime="0.00" timeLoss="6.30" rerouteNo="0" devices="tripinfo_NS_1" vType="cars" speedFactor="1.11" vaporized=""/>
    <tripinfo id="SN_2" depart="5.00" departLane="3_1_2" departPos="5.10" departSpeed="0.00" departDelay="0.00" arrival="40.00" arrivalLane="1_5_1" arrivalPos="186.40" arrivalSpeed="11.68" duration="35.00" routeLength="395.15" waitingTime="0.00" waitingCount="0" stopTime="0.00" timeLoss="4.48" rerouteNo="0" devices="tripinfo_SN_2" vType="cars" speedFactor="0.86" vaporized=""/>
    <tripinfo id="WE_1" depart="10.00" departLane="2_1_2" departPos="5.10" departSpeed="0.00" departDelay="0.00" arrival="75.00" arrivalLane="1_4_1" arrivalPos="186.40" arrivalSpeed="12.31" duration="65.00" routeLength="395.15" waitingTime="25.50" waitingCount="1" stopTime="0.00" timeLoss="34.54" rerouteNo="0" devices="tripinfo_WE_1" vType="cars" speedFactor="1.06" vaporized=""/>
    <tripinfo id="EW_0" depart="19.00" departLane="4_1_2" departPos="5.10" departSpeed="0.00" departDelay="0.00" arrival="75.00" arrivalLane="1_2_1" arrivalPos="186.40" arrivalSpeed="12.60" duration="56.00" routeLength="395.15" waitingTime="16.00" waitingCount="1" stopTime="0.00" timeLoss="25.21" rerouteNo="0" devices="tripinfo_EW_0" vType="cars" speedFactor="1.05" vaporized=""/>
    <tripinfo id="EW_1" depart="22.00" departLane="4_1_2" departPos="5.10" departSpeed="0.00" departDelay="1.00" arrival="75.00" arrivalLane="1_2_2" arrivalPos="186.40" arrivalSpeed="12.94" duration="53.00" routeLength="395.15" waitingTime="12.00" waitingCount="1" stopTime="0.00" timeLoss="22.17" rerouteNo="0" devices="tripinfo_EW_1" vType="cars" speedFactor="1.01" vaporized=""/>
    <tripinfo id="WE_0" depart="1.00" departLane="2_1_2" departPos="5.10" departSpeed="0.00" departDelay="0.00" arrival="77.00" arrivalLane="1_4_1" arrivalPos="186.40" arrivalSpeed="11.95" duration="76.00" routeLength="395.15" waitingTime="33.50" waitingCount="1" stopTime="0.00" timeLoss="45.31" rerouteNo="0" devices="tripinfo_WE_0" vType="cars" speedFactor="0.91" vaporized=""/>
    <tripinfo id="WS_3" depart="7.00" departLane="2_1_1" departPos="5.10" departSpeed="0.00" departDelay="0.00" arrival="77.50" arrivalLane="1_3_1" arrivalPos="186.40" arrivalSpeed="12.79" duration="70.50" routeLength="379.43" waitingTime="25.50" waitingCount="1" stopTime="0.00" timeLoss="40.25" rerouteNo="0" devices="tripinfo_WS_3" vType="cars" speedFactor="0.95" vaporized=""/>
    <tripinfo id="WE_2" depart="12.50" departLane="2_1_2" departPos="5.10" departSpeed="0.00" departDelay="0.50" arrival="77.50" arrivalLane="1_4_2" arrivalPos="186.40" arrivalSpeed="12.11" duration="65.00" routeLength="395.15" waitingTime="20.50" waitingCount="1" stopTime="0.00" timeLoss="34.32" rerouteNo="0" devices="tripinfo_WE_2" vType="cars" speedFactor="0.94" vaporized=""/>
    <tripinfo id="WE_3" depart="43.00" departLane="2_1_2" departPos="5.10" departSpeed="0.00" departDelay="0.00" arrival="79.50" arrivalLane="1_4_1" arrivalPos="186.40" arrivalSpeed="12.43" duration="36.50" routeLength="395.15" waitingTime="0.00" waitingCount="0" stopTime="0.00" timeLoss="5.64" rerouteNo="0" devices="tripinfo_WE_3" vType="cars" speedFactor="1.05" vaporized=""/>
    <tripinfo id="EW_2" depart="46.00" departLane="4_1_2" departPos="5.10" departSpeed="0.00" departDelay="0.00" arrival="81.50" arrivalLane="1_2_1" arrivalPos="186.40" arrivalSpeed="11.59" duration="35.50" routeLength="395.15" waitingTime="0.00" waitingCount="0" stopTime="0.00" timeLoss="4.90" rerouteNo="0" devices="tripinfo_EW_2" vType="cars" speedFactor="1.05" vaporized=""/>
    <tripinfo id="WE_4" depart="67.00" departLane="2_1_2" departPos="5.10" departSpeed="0.00" departDelay="0.00" arrival="103.50" arrivalLane="1_4_1" arrivalPos="186.40" arrivalSpeed="11.80" duration="36.50" routeLength="395.15" waitingTime="0.00" waitingCount="0" stopTime="0.00" timeLoss="6.07" rerouteNo="0" devices="tripinfo_WE_4" vType="cars" speedFactor="0.96" vaporized=""/>
    <tripinfo id="EW_3" depart="68.00" departLane="4_1_2" departPos="5.10" departSpeed="0.00" departDelay="0.00" arrival="104.50" arrivalLane="1_2_1" arrivalPos="186.40" arrivalSpeed="12.24" duration="36.50" routeLength="395.15" waitingTime="0.00" waitingCount="0" stopTime="0.00" timeLoss="5.68" rerouteNo="0" devices="tripinfo_EW_3" vType="cars" speedFactor="0.98" vaporized=""/>
    <tripinfo id="ES_4" depart="14.00" departLane="4_1_3" departPos="5.10" departSpeed="0.00" departDelay="0.00" arrival="121.50" arrivalLane="1_3_2" arrivalPos="186.40" arrivalSpeed="11.79" duration="107.50" routeLength="392.22" waitingTime="65.50" waitingCount="1" stopTime="0.00" timeLoss="76.68" rerouteNo="0" devices="tripinfo_ES_4" vType="cars" speedFactor="0.97" vaporized=""/>
    <tripinfo id="WN_13" depart="85.00" departLane="2_1_3" departPos="5.10" departSpeed="0.00" departDelay="0.00" arrival="122.50" arrivalLane="1_5_2" arrivalPos="186.40" arrivalSpeed="11.85" duration="37.50" routeLength="392.22" waitingTime="0.00" waitingCount="0" stopTime="0.00" timeLoss="6.57" rerouteNo="0" devices="tripinfo_WN_13" vType="cars" speedFactor="0.99" vaporized=""/>
    <tripinfo id="ES_6" depart="31.00" departLane="4_1_3" departPos="5.10" departSpeed="0.00" departDelay="0.00" arrival="124.00" arrivalLane="1_3_2" arrivalPos="186.40" arrivalSpeed="11.79" duration="93.00" routeLength="392.22" waitingTime="47.00" waitingCount="1" stopTime="0.00" timeLoss="62.30" rerouteNo="0" devices="tripinfo_ES_6" vType="cars" speedFactor="1.07" vaporized=""/>
    <tripinfo id="NS_5" depart="22.00" departLane="5_1_2" departPos="5.10" departSpeed="0.00" departDelay="0.00" arrival="135.50" arrivalLane="1_3_1" arrivalPos="186.40" arrivalSpeed="12.36" duration="113.50" routeLength="395.15" waitingTime="72.00" waitingCount="1" stopTime="0.00" timeLoss="82.89" rerouteNo="0" devices="tripinfo_NS_5" vType="cars" speedFactor="1.01" vaporized=""/>
    <tripinfo id="SN_10" depart="48.00" departLane="3_1_2" departPos="5.10" departSpeed="0.00" departDelay="0.00" arrival="135.50" arrivalLane="1_5_1" arrivalPos="186.40" arrivalSpeed="11.71" duration="87.50" routeLength="395.15" waitingTime="46.50" waitingCount="1" stopTime="0.00" timeLoss="56.74" rerouteNo="0" devices="tripinfo_SN_10" vType="cars" speedFactor="1.02" vaporized=""/>
    <tripinfo id="SN_11" depart="70.00" departLane="3_1_2" departPos="5.10" departSpeed="0.00" departDelay="0.00" arrival="136.00" arrivalLane="1_5_2" arrivalPos="186.40" arrivalSpeed="12.58" duration="66.00" routeLength="395.15" waitingTime="25.50" waitingCount="1" stopTime="0.00" timeLoss="35.43" rerouteNo="0" devices="tripinfo_SN_11" vType="cars" speedFactor="1.02" vaporized=""/>
    <tripinfo id="NS_12" depart="80.00" departLane="5_1_2" departPos="5.10" departSpeed="0.00" departDelay="0.00" arrival="136.50" arrivalLane="1_3_1" arrivalPos="186.40" arrivalSpeed="12.29" duration="56.50" routeLength="395.15" waitingTime="14.00" waitingCount="1" stopTime="0.00" timeLoss="25.72" rerouteNo="0" devices="tripinfo_NS_12" vType="cars" speedFactor="1.07" vaporized=""/>
    <tripinfo id="NW_7" depart="37.00" departLane="5_1_1" departPos="5.10" departSpeed="0.00" departDelay="0.00" arrival="137.00" arrivalLane="1_2_1" arrivalPos="186.40" arrivalSpeed="11.56" duration="100.00" routeLength="379.43" waitingTime="56.50" waitingCount="1" stopTime="0.00" timeLoss="70.04" rerouteNo="0" devices="tripinfo_NW_7" vType="cars" speedFactor="1.13" vaporized=""/>
    <tripinfo id="SN_16" depart="93.00" departLane="3_1_2" departPos="5.10" departSpeed="0.00" departDelay="0.00" arrival="137.50" arrivalLane="1_5_1" arrivalPos="186.40" arrivalSpeed="11.84" duration="44.50" routeLength="395.15" waitingTime="0.00" waitingCount="0" stopTime="0.00" timeLoss="13.80" rerouteNo="0" devices="tripinfo_SN_16" vType="cars" speedFactor="0.91" vaporized=""/>
    <tripinfo id="SN_14" depart="90.00" departLane="3_1_2" departPos="5.10" departSpeed="0.00" departDelay="0.00" arrival="138.00" arrivalLane="1_5_2" arrivalPos="186.40" arrivalSpeed="12.44" duration="48.00" routeLength="395.15" waitingTime="3.00" waitingCount="1" stopTime="0.00" timeLoss="17.42" rerouteNo="0" devices="tripinfo_SN_14" vType="cars" speedFactor="1.05" vaporized=""/>
    <tripinfo id="NS_15" depart="92.00" departLane="5_1_2" departPos="5.10" departSpeed="0.00" departDelay="0.00" arrival="138.50" arrivalLane="1_3_1" arrivalPos="186.40" arrivalSpeed="12.61" duration="46.50" routeLength="395.15" waitingTime="0.00" waitingCount="0" stopTime="0.00" timeLoss="15.86" rerouteNo="0" devices="tripinfo_NS_15" vType="cars" speedFactor="1.01" vaporized=""/>
    <tripinfo id="SE_19" depart="100.00" departLane="3_1_1" departPos="5.10" departSpeed="0.00" departDelay="0.00" arrival="139.50" arrivalLane="1_4_1" arrivalPos="186.40" arrivalSpeed="11.62" duration="39.50" routeLength="379.42" waitingTime="0.00" waitingCount="0" stopTime="0.00" timeLoss="9.06" rerouteNo="0" devices="tripinfo_SE_19" vType="cars" speedFactor="0.92" vaporized=""/>
    <tripinfo id="NW_9" depart="41.00" departLane="5_1_1" departPos="5.10" departSpeed="0.00" departDelay="0.00" arrival="140.00" arrivalLane="1_2_1" arrivalPos="186.40" arrivalSpeed="11.58" duration="99.00" routeLength="379.43" waitingTime="53.00" waitingCount="1" stopTime="0.00" timeLoss="68.75" rerouteNo="0" devices="tripinfo_NW_9" vType="cars" speedFactor="0.91" vaporized=""/>
    <tripinfo id="NS_18" depart="99.00" departLane="5_1_2" departPos="5.10" departSpeed="0.00" departDelay="0.00" arrival="140.50" arrivalLane="1_3_1" arrivalPos="186.40" arrivalSpeed="12.43" duration="41.50" routeLength="395.15" waitingTime="0.00" waitingCount="0" stopTime="0.00" timeLoss="10.73" rerouteNo="0" devices="tripinfo_NS_18" vType="cars" speedFactor="0.84" vaporized=""/>
    <tripinfo id="SN_20" depart="109.00" departLane="3_1_2" departPos="5.10" departSpeed="0.00" departDelay="0.00" arrival="145.00" arrivalLane="1_5_1" arrivalPos="186.40" arrivalSpeed="12.59" duration="36.00" routeLength="395.15" waitingTime="0.00" waitingCount="0" stopTime="0.00" timeLoss="5.40" rerouteNo="0" devices="tripinfo_SN_20" vType="cars" speedFactor="0.89" vaporized=""/>
    <tripinfo id="EN_21" depart="111.00" departLane="4_1_1" departPos="5.10" departSpeed="0.00" departDelay="0.00" arrival="159.50" arrivalLane="1_5_1" arrivalPos="186.40" arrivalSpeed="12.55" duration="48.50" routeLength="379.42" waitingTime="8.00" waitingCount="1" stopTime="0.00" timeLoss="18.33" rerouteNo="0" devices="tripinfo_EN_21" vType="cars" speedFactor="1.00" vaporized=""/>
    <tripinfo id="SW_8" depart="40.00" departLane="3_1_3" departPos="5.10" departSpeed="0.00" departDelay="0.00" arrival="161.50" arrivalLane="1_2_2" arrivalPos="186.40" arrivalSpeed="12.90" duration="121.50" routeLength="392.22" waitingTime="78.50" waitingCount="1" stopTime="0.00" timeLoss="90.28" rerouteNo="0" devices="tripinfo_SW_8" vType="cars" speedFactor="0.85" vaporized=""/>
    <tripinfo id="SW_17" depart="93.00" departLane="3_1_3" departPos="5.10" departSpeed="0.00" departDelay="0.00" arrival="163.50" arrivalLane="1_2_2" arrivalPos="186.40" arrivalSpeed="12.68" duration="70.50" routeLength="392.22" waitingTime="24.00" waitingCount="1" stopTime="0.00" timeLoss="39.28" rerouteNo="0" devices="tripinfo_SW_17" vType="cars" speedFactor="0.83" vaporized=""/>
    <tripinfo id="WE_6" depart="89.00" departLane="2_1_2" departPos="5.10" departSpeed="0.00" departDelay="2.00" arrival="175.00" arrivalLane="1_4_1" arrivalPos="186.40" arrivalSpeed="12.90" duration="86.00" routeLength="395.15" waitingTime="43.50" waitingCount="1" stopTime="0.00" timeLoss="55.61" rerouteNo="0" devices="tripinfo_WE_6" vType="cars" speedFactor="0.93" vaporized=""/>
    <tripinfo id="EW_4" depart="123.00" departLane="4_1_2" departPos="5.10" departSpeed="0.00" departDelay="0.00" arrival="175.00" arrivalLane="1_2_2" arrivalPos="186.40" arrivalSpeed="12.25" duration="52.00" routeLength="395.15" waitingTime="10.50" waitingCount="1" stopTime="0.00" timeLoss="21.60" rerouteNo="0" devices="tripinfo_EW_4" vType="cars" speedFactor="1.11" vaporized=""/>
    <tripinfo id="EW_5" depart="126.00" departLane="4_1_2" departPos="5.10" departSpeed="0.00" departDelay="1.00" arrival="175.50" arrivalLane="1_2_1" arrivalPos="186.40" arrivalSpeed="11.92" duration="49.50" routeLength="395.15" waitingTime="7.00" waitingCount="1" stopTime="0.00" timeLoss="18.80" rerouteNo="0" devices="tripinfo_EW_5" vType="cars" speedFactor="1.09" vaporized=""/>
    <tripinfo id="EN_29" depart="137.00" departLane="4_1_1" departPos="5.10" departSpeed="0.00" departDelay="0.00" arrival="176.50" arrivalLane="1_5_1" arrivalPos="186.40" arrivalSpeed="11.85" duration="39.50" routeLength="379.42" waitingTime="0.00" waitingCount="0" stopTime="0.00" timeLoss="9.49" rerouteNo="0" devices="tripinfo_EN_29" vType="cars" speedFactor="1.15" vaporized=""/>
    <tripinfo id="WE_5" depart="86.00" departLane="2_1_2" departPos="5.10" departSpeed="0.00" departDelay="0.00" arrival="177.00" arrivalLane="1_4_1" arrivalPos="186.40" arrivalSpeed="12.30" duration="91.00" routeLength="395.15" waitingTime="48.50" waitingCount="1" stopTime="0.00" timeLoss="60.59" rerouteNo="0" devices="tripinfo_WE_5" vType="cars" speedFactor="0.99" vaporized=""/>
    <tripinfo id="WS_23" depart="125.00" departLane="2_1_1" departPos="5.10" departSpeed="0.00" departDelay="0.00" arrival="177.00" arrivalLane="1_3_1" arrivalPos="186.40" arrivalSpeed="11.69" duration="52.00" routeLength="379.43" waitingTime="8.00" waitingCount="1" stopTime="0.00" timeLoss="22.04" rerouteNo="0" devices="tripinfo_WS_23" vType="cars" speedFactor="1.02" vaporized=""/>
    <tripinfo id="EW_6" depart="137.00" departLane="4_1_2" departPos="5.10" departSpeed="0.00" departDelay="0.00" arrival="177.00" arrivalLane="1_2_2" arrivalPos="186.40" arrivalSpeed="11.60" duration="40.00" routeLength="395.15" waitingTime="0.00" waitingCount="0" stopTime="0.00" timeLoss="9.45" rerouteNo="0" devices="tripinfo_EW_6" vType="cars" speedFactor="1.08" vaporized=""/>
    <tripinfo id="WE_7" depart="125.00" departLane="2_1_2" departPos="5.10" departSpeed="0.00" departDelay="0.00" arrival="177.50" arrivalLane="1_4_2" arrivalPos="186.40" arrivalSpeed="12.38" duration="52.50" routeLength="395.15" waitingTime="8.00" waitingCount="1" stopTime="0.00" timeLoss="22.09" rerouteNo="0" devices="tripinfo_WE_7" vType="cars" speedFactor="1.02" vaporized=""/>
    <tripinfo id="WE_8" depart="134.00" departLane="2_1_2" departPos="5.10" departSpeed="0.00" departDelay="0.00" arrival="179.50" arrivalLane="1_4_2" arrivalPos="186.40" arrivalSpeed="12.43" duration="45.50" routeLength="395.15" waitingTime="0.00" waitingCount="0" stopTime="0.00" timeLoss="15.04" rerouteNo="0" devices="tripinfo_WE_8" vType="cars" speedFactor="1.01" vaporized=""/>
    <tripinfo id="ES_22" depart="119.00" departLane="4_1_3" departPos="5.10" departSpeed="0.00" departDelay="0.00" arrival="201.00" arrivalLane="1_3_2" arrivalPos="186.40" arrivalSpeed="12.28" duration="82.00" routeLength="392.22" waitingTime="39.50" waitingCount="1" stopTime="0.00" timeLoss="50.98" rerouteNo="0" devices="tripinfo_ES_22" vType="cars" speedFactor="0.97" vaporized=""/>
    <tripinfo id="WN_36" depart="158.00" departLane="2_1_3" departPos="5.10" departSpeed="0.00" departDelay="0.00" arrival="201.50" arrivalLane="1_5_2" arrivalPos="186.40" arrivalSpeed="12.11" duration="43.50" routeLength="392.22" waitingTime="2.00" waitingCount="1" stopTime="0.00" timeLoss="12.75" rerouteNo="0" devices="tripinfo_WN_36" vType="cars" speedFactor="1.03" vaporized=""/>
    <tripinfo id="ES_37" depart="160.00" departLane="4_1_3" departPos="5.10" departSpeed="0.00" departDelay="0.00" arrival="203.00" arrivalLane="1_3_2" arrivalPos="186.40" arrivalSpeed="12.88" duration="43.00" routeLength="392.22" waitingTime="0.00" waitingCount="0" stopTime="0.00" timeLoss="12.41" rerouteNo="0" devices="tripinfo_ES_37" vType="cars" speedFactor="1.11" vaporized=""/>
    <tripinfo id="SN_25" depart="126.00" departLane="3_1_2" departPos="5.10" departSpeed="0.00" departDelay="0.00" arrival="216.00" arrivalLane="1_5_1" arrivalPos="186.40" arrivalSpeed="12.02" duration="90.00" routeLength="395.15" waitingTime="49.00" waitingCount="1" stopTime="0.00" timeLoss="59.41" rerouteNo="0" devices="tripinfo_SN_25" vType="cars" speedFactor="0.91" vaporized=""/>
    <tripinfo id="NS_26" depart="130.00" departLane="5_1_2" departPos="5.10" departSpeed="0.00" departDelay="0.00" arrival="216.00" arrivalLane="1_3_2" arrivalPos="186.40" arrivalSpeed="12.74" duration="86.00" routeLength="395.15" waitingTime="44.00" waitingCount="1" stopTime="0.00" timeLoss="55.28" rerouteNo="0" devices="tripinfo_NS_26" vType="cars" speedFactor="1.04" vaporized=""/>
    <tripinfo id="SN_27" depart="130.00" departLane="3_1_2" departPos="5.10" departSpeed="0.00" departDelay="0.00" arrival="216.00" arrivalLane="1_5_2" arrivalPos="186.40" arrivalSpeed="11.75" duration="86.00" routeLength="395.15" waitingTime="44.00" waitingCount="1" stopTime="0.00" timeLoss="55.33" rerouteNo="0" devices="tripinfo_SN_27" vType="cars" speedFactor="1.11" vaporized=""/>
    <tripinfo id="NS_24" depart="125.00" departLane="5_1_2" departPos="5.10" departSpeed="0.00" departDelay="0.00" arrival="216.50" arrivalLane="1_3_1" arrivalPos="186.40" arrivalSpeed="12.38" duration="91.50" routeLength="395.15" waitingTime="48.50" waitingCount="1" stopTime="0.00" timeLoss="60.67" rerouteNo="0" devices="tripinfo_NS_24" vType="cars" speedFactor="1.22" vaporized=""/>
    <tripinfo id="NS_31" depart="141.50" departLane="5_1_2" departPos="5.10" departSpeed="0.00" departDelay="2.50" arrival="218.00" arrivalLane="1_3_2" arrivalPos="186.40" arrivalSpeed="12.12" duration="76.50" routeLength="395.15" waitingTime="32.00" waitingCount="1" stopTime="0.00" timeLoss="45.66" rerouteNo="0" devices="tripinfo_NS_31" vType="cars" speedFactor="1.01" vaporized=""/>
    <tripinfo id="SN_35" depart="156.00" departLane="3_1_2" departPos="5.10" departSpeed="0.00" departDelay="0.00" arrival="218.00" arrivalLane="1_5_1" arrivalPos="186.40" arrivalSpeed="11.69" duration="62.00" routeLength="395.15" waitingTime="16.00" waitingCount="1" stopTime="0.00" timeLoss="31.47" rerouteNo="0" devices="tripinfo_SN_35" vType="cars" speedFactor="1.06" vaporized=""/>
    <tripinfo id="NS_30" depart="138.00" departLane="5_1_2" departPos="5.10" departSpeed="0.00" departDelay="0.00" arrival="218.50" arrivalLane="1_3_1" arrivalPos="186.40" arrivalSpeed="12.44" duration="80.50" routeLength="395.15" waitingTime="34.50" waitingCount="1" stopTime="0.00" timeLoss="49.75" rerouteNo="0" devices="tripinfo_NS_30" vType="cars" speedFactor="1.01" vaporized=""/>
    <tripinfo id="NS_32" depart="147.00" departLane="5_1_2" departPos="5.10" departSpeed="0.00" departDelay="0.00" arrival="220.00" arrivalLane="1_3_1" arrivalPos="186.40" arrivalSpeed="11.61" duration="73.00" routeLength="395.15" waitingTime="28.50" waitingCount="1" stopTime="0.00" timeLoss="42.57" rerouteNo="0" devices="tripinfo_NS_32" vType="cars" speedFactor="1.00" vaporized=""/>
    <tripinfo id="NW_33" depart="147.00" departLane="5_1_1" departPos="5.10" departSpeed="0.00" departDelay="0.00" arrival="220.00" arrivalLane="1_2_1" arrivalPos="186.40" arrivalSpeed="12.11" duration="73.00" routeLength="379.43" waitingTime="28.00" waitingCount="1" stopTime="0.00" timeLoss="42.88" rerouteNo="0" devices="tripinfo_NW_33" vType="cars" speedFactor="0.83" vaporized=""/>
    <tripinfo id="NS_34" depart="152.00" departLane="5_1_2" departPos="5.10" departSpeed="0.00" departDelay="0.00" arrival="222.50" arrivalLane="1_3_1" arrivalPos="186.40" arrivalSpeed="11.55" duration="70.50" routeLength="395.15" waitingTime="23.00" waitingCount="1" stopTime="0.00" timeLoss="40.00" rerouteNo="0" devices="tripinfo_NS_34" vType="cars" speedFactor="0.85" vaporized=""/>
    <tripinfo id="NS_38" depart="163.00" departLane="5_1_2" departPos="5.10" departSpeed="0.00" departDelay="0.00" arrival="222.50" arrivalLane="1_3_2" arrivalPos="186.40" arrivalSpeed="12.97" duration="59.50" routeLength="395.15" waitingTime="11.00" waitingCount="1" stopTime="0.00" timeLoss="28.71" rerouteNo="0" devices="tripinfo_NS_38" vType="cars" speedFactor="0.93" vaporized=""/>
    <tripinfo id="NS_40" depart="188.00" departLane="5_1_2" departPos="5.10" departSpeed="0.00" departDelay="0.00" arrival="225.00" arrivalLane="1_3_1" arrivalPos="186.40" arrivalSpeed="12.47" duration="37.00" routeLength="395.15" waitingTime="0.00" waitingCount="0" stopTime="0.00" timeLoss="6.45" rerouteNo="0" devices="tripinfo_NS_40" vType="cars" speedFactor="1.05" vaporized=""/>
    <tripinfo id="SN_42" depart="196.00" departLane="3_1_2" departPos="5.10" departSpeed="0.00" departDelay="0.00" arrival="231.50" arrivalLane="1_5_1" arrivalPos="186.40" arrivalSpeed="12.37" duration="35.50" routeLength="395.15" waitingTime="0.00" waitingCount="0" stopTime="0.00" timeLoss="5.08" rerouteNo="0" devices="tripinfo_SN_42" vType="cars" speedFactor="1.04" vaporized=""/>
    <tripinfo id="NS_43" depart="197.00" departLane="5_1_2" departPos="5.10" departSpeed="0.00" departDelay="0.00" arrival="234.00" arrivalLane="1_3_1" arrivalPos="186.40" arrivalSpeed="12.40" duration="37.00" routeLength="395.15" waitingTime="0.00" waitingCount="0" stopTime="0.00" timeLoss="6.54" rerouteNo="0" devices="tripinfo_NS_43" vType="cars" speedFactor="0.98" vaporized=""/>
    <tripinfo id="SN_44" depart="198.50" departLane="3_1_2" departPos="5.10" departSpeed="0.00" departDelay="0.50" arrival="235.50" arrivalLane="1_5_1" arrivalPos="186.40" arrivalSpeed="12.54" duration="37.00" routeLength="395.15" waitingTime="0.00" waitingCount="0" stopTime="0.00" timeLoss="6.18" rerouteNo="0" devices="tripinfo_SN_44" vType="cars" speedFactor="1.00" vaporized=""/>
    <tripinfo id="NS_45" depart="200.50" departLane="5_1_2" departPos="5.10" departSpeed="0.00" departDelay="0.50" arrival="236.50" arrivalLane="1_3_1" arrivalPos="186.40" arrivalSpeed="12.97" duration="36.00" routeLength="395.15" waitingTime="0.00" waitingCount="0" stopTime="0.00" timeLoss="5.23" rerouteNo="0" devices="tripinfo_NS_45" vType="cars" speedFactor="0.87" vaporized=""/>
    <tripinfo id="SN_46" depart="202.00" departLane="3_1_2" departPos="5.10" departSpeed="0.00" departDelay="0.00" arrival="238.00" arrivalLane="1_5_1" arrivalPos="186.40" arrivalSpeed="11.99" duration="36.00" routeLength="395.15" waitingTime="0.00" waitingCount="0" stopTime="0.00" timeLoss="5.18" rerouteNo="0" devices="tripinfo_SN_46" vType="cars" speedFactor="1.02" vaporized=""/>
    <tripinfo id="SW_28" depart="136.00" departLane="3_1_3" departPos="5.10" departSpeed="0.00" departDelay="0.00" arrival="246.50" arrivalLane="1_2_2" arrivalPos="186.40" arrivalSpeed="12.48" duration="110.50" routeLength="392.22" waitingTime="69.50" waitingCount="1" stopTime="0.00" timeLoss="79.62" rerouteNo="0" devices="tripinfo_SW_28" vType="cars" speedFactor="0.88" vaporized=""/>
    <tripinfo id="NE_39" depart="177.00" departLane="5_1_3" departPos="5.10" departSpeed="0.00" departDelay="0.00" arrival="247.50" arrivalLane="1_4_2" arrivalPos="186.40" arrivalSpeed="12.27" duration="70.50" routeLength="392.22" waitingTime="29.50" waitingCount="1" stopTime="0.00" timeLoss="39.49" rerouteNo="0" devices="tripinfo_NE_39" vType="cars" speedFactor="0.99" vaporized=""/>
    <tripinfo id="SW_47" depart="205.00" departLane="3_1_3" departPos="5.10" departSpeed="0.00" departDelay="0.00" arrival="250.50" arrivalLane="1_2_2" arrivalPos="186.40" arrivalSpeed="12.75" duration="45.50" routeLength="392.22" waitingTime="0.00" waitingCount="0" stopTime="0.00" timeLoss="14.92" rerouteNo="0" devices="tripinfo_SW_47" vType="cars" speedFactor="1.12" vaporized=""/>
    <tripinfo id="NE_41" depart="192.00" departLane="5_1_3" departPos="5.10" departSpeed="0.00" departDelay="0.00" arrival="251.00" arrivalLane="1_4_2" arrivalPos="186.40" arrivalSpeed="12.67" duration="59.00" routeLength="392.22" waitingTime="12.00" waitingCount="1" stopTime="0.00" timeLoss="28.28" rerouteNo="0" devices="tripinfo_NE_41" vType="cars" speedFactor="1.04" vaporized=""/>
    <tripinfo id="EW_7" depart="175.00" departLane="4_1_2" departPos="5.10" departSpeed="0.00" departDelay="0.00" arrival="262.00" arrivalLane="1_2_1" arrivalPos="186.40" arrivalSpeed="11.66" duration="87.00" routeLength="395.15" waitingTime="45.00" waitingCount="1" stopTime="0.00" timeLoss="56.21" rerouteNo="0" devices="tripinfo_EW_7" vType="cars" speedFactor="1.37" vaporized=""/>
    <tripinfo id="EW_8" depart="198.00" departLane="4_1_2" departPos="5.10" departSpeed="0.00" departDelay="0.00" arrival="262.00" arrivalLane="1_2_2" arrivalPos="186.40" arrivalSpeed="12.31" duration="64.00" routeLength="395.15" waitingTime="24.00" waitingCount="1" stopTime="0.00" timeLoss="33.21" rerouteNo="0" devices="tripinfo_EW_8" vType="cars" speedFactor="1.01" vaporized=""/>
    <tripinfo id="WE_9" depart="175.00" departLane="2_1_2" departPos="5.10" departSpeed="0.00" departDelay="0.00" arrival="262.50" arrivalLane="1_4_1" arrivalPos="186.40" arrivalSpeed="12.80" duration="87.50" routeLength="395.15" waitingTime="43.00" waitingCount="1" stopTime="0.00" timeLoss="56.80" rerouteNo="0" devices="tripinfo_WE_9" vType="cars" speedFactor="1.08" vaporized=""/>
    <tripinfo id="WE_10" depart="179.00" departLane="2_1_2" departPos="5.10" departSpeed="0.00" departDelay="2.00" arrival="262.50" arrivalLane="1_4_2" arrivalPos="186.40" arrivalSpeed="12.87" duration="83.50" routeLength="395.15" waitingTime="41.00" waitingCount="1" stopTime="0.00" timeLoss="52.69" rerouteNo="0" devices="tripinfo_WE_10" vType="cars" speedFactor="1.14" vaporized=""/>
    <tripinfo id="EN_48" depart="206.00" departLane="4_1_1" departPos="5.10" departSpeed="0.00" departDelay="0.00" arrival="263.00" arrivalLane="1_5_1" arrivalPos="186.40" arrivalSpeed="12.28" duration="57.00" routeLength="379.42" waitingTime="13.00" waitingCount="1" stopTime="0.00" timeLoss="26.71" rerouteNo="0" devices="tripinfo_EN_48" vType="cars" speedFactor="1.04" vaporized=""/>
    <tripinfo id="EW_9" depart="203.00" departLane="4_1_2" departPos="5.10" departSpeed="0.00" departDelay="0.00" arrival="264.00" arrivalLane="1_2_1" arrivalPos="186.40" arrivalSpeed="12.93" duration="61.00" routeLength="395.15" waitingTime="15.00" waitingCount="1" stopTime="0.00" timeLoss="30.17" rerouteNo="0" devices="tripinfo_EW_9" vType="cars" speedFactor="1.02" vaporized=""/>
    <tripinfo id="WE_12" depart="204.00" departLane="2_1_2" departPos="5.10" departSpeed="0.00" departDelay="0.00" arrival="264.00" arrivalLane="1_4_2" arrivalPos="186.40" arrivalSpeed="12.78" duration="60.00" routeLength="395.15" waitingTime="13.50" waitingCount="1" stopTime="0.00" timeLoss="29.46" rerouteNo="0" devices="tripinfo_WE_12" vType="cars" speedFactor="0.90" vaporized=""/>
    <tripinfo id="WE_11" depart="187.00" departLane="2_1_2" departPos="5.10" departSpeed="0.00" departDelay="0.00" arrival="264.50" arrivalLane="1_4_1" arrivalPos="186.40" arrivalSpeed="11.77" duration="77.50" routeLength="395.15" waitingTime="31.00" waitingCount="1" stopTime="0.00" timeLoss="46.97" rerouteNo="0" devices="tripinfo_WE_11" vType="cars" speedFactor="0.96" vaporized=""/>
    <tripinfo id="WE_13" depart="218.00" departLane="2_1_2" departPos="5.10" departSpeed="0.00" departDelay="0.00" arrival="266.00" arrivalLane="1_4_2" arrivalPos="186.40" arrivalSpeed="11.74" duration="48.00" routeLength="395.15" waitingTime="1.50" waitingCount="1" stopTime="0.00" timeLoss="17.24" rerouteNo="0" devices="tripinfo_WE_13" vType="cars" speedFactor="0.70" vaporized=""/>