<?xml version="1.0" encoding="UTF-8"?>

<!-- generated on 2025-06-19 17:03:41 by Eclipse SUMO GUI Version 1.22.0
<sumoConfiguration xmlns:xsi="http://www.w3.org/2001/XMLSchema-instance" xsi:noNamespaceSchemaLocation="http://sumo.dlr.de/xsd/sumoConfiguration.xsd">

    <input>
        <net-file value="/home/naderian/Desktop/Shakiba/MMSVCC/environment/network_model/single_intersection_pedestrian_X.net.xml"/>
        <route-files value="/home/naderian/Desktop/Shakiba/MMSVCC/environment/network_model/single_intersection.rou.xml"/>
        <additional-files value="/home/naderian/Desktop/Shakiba/MMSVCC/environment/network_model/single_intersection_Concurrent.add.xml"/>
    </input>

    <output>
        <queue-output value="/home/naderian/Desktop/Shakiba/MMSVCC/environment/simulation_data/single_intersection/queues_multi_scale_symmetric_pene_100.xml"/>
        <tripinfo-output value="/home/naderian/Desktop/Shakiba/MMSVCC/environment/simulation_data/single_intersection/tripinfo_multi_scale_symmetric_pene_100.xml"/>
    </output>

    <time>
        <begin value="0"/>
        <step-length value="0.5"/>
    </time>

    <processing>
        <waiting-time-memory value="1000"/>
    </processing>

    <report>
        <verbose value="true"/>
        <no-step-log value="true"/>
    </report>

    <traci_server>
        <remote-port value="43993"/>
    </traci_server>

    <gui_only>
        <start value="true"/>
    </gui_only>

</sumoConfiguration>
-->

<tripinfos xmlns:xsi="http://www.w3.org/2001/XMLSchema-instance" xsi:noNamespaceSchemaLocation="http://sumo.dlr.de/xsd/tripinfo_file.xsd">
    <tripinfo id="SN_0" depart="0.00" departLane="3_1_2" departPos="5.10" departSpeed="0.00" departDelay="0.00" arrival="35.00" arrivalLane="1_5_1" arrivalPos="186.40" arrivalSpeed="13.00" duration="35.00" routeLength="395.15" waitingTime="0.00" waitingCount="0" stopTime="0.00" timeLoss="4.21" rerouteNo="0" devices="tripinfo_SN_0" vType="cars" speedFactor="1.02" vaporized=""/>
    <tripinfo id="NS_1" depart="1.00" departLane="5_1_2" departPos="5.10" departSpeed="0.00" departDelay="0.00" arrival="37.00" arrivalLane="1_3_1" arrivalPos="186.40" arrivalSpeed="13.00" duration="36.00" routeLength="395.15" waitingTime="0.00" waitingCount="0" stopTime="0.00" timeLoss="5.41" rerouteNo="0" devices="tripinfo_NS_1" vType="cars" speedFactor="1.15" vaporized=""/>
    <tripinfo id="SN_2" depart="5.00" departLane="3_1_2" departPos="5.10" departSpeed="0.00" departDelay="0.00" arrival="40.50" arrivalLane="1_5_1" arrivalPos="186.40" arrivalSpeed="13.00" duration="35.50" routeLength="395.15" waitingTime="0.00" waitingCount="0" stopTime="0.00" timeLoss="4.90" rerouteNo="0" devices="tripinfo_SN_2" vType="cars" speedFactor="1.03" vaporized=""/>
    <tripinfo id="SE_4" depart="9.00" departLane="3_1_1" departPos="5.10" departSpeed="0.00" departDelay="0.00" arrival="43.50" arrivalLane="1_4_1" arrivalPos="186.40" arrivalSpeed="13.00" duration="34.50" routeLength="379.42" waitingTime="0.00" waitingCount="0" stopTime="0.00" timeLoss="4.82" rerouteNo="0" devices="tripinfo_SE_4" vType="cars" speedFactor="1.12" vaporized=""/>
    <tripinfo id="NS_5" depart="11.00" departLane="5_1_2" departPos="5.10" departSpeed="0.00" departDelay="0.00" arrival="47.50" arrivalLane="1_3_1" arrivalPos="186.40" arrivalSpeed="13.00" duration="36.50" routeLength="395.15" waitingTime="0.00" waitingCount="0" stopTime="0.00" timeLoss="5.84" rerouteNo="0" devices="tripinfo_NS_5" vType="cars" speedFactor="1.01" vaporized=""/>
    <tripinfo id="NS_8" depart="17.00" departLane="5_1_2" departPos="5.10" departSpeed="0.00" departDelay="0.00" arrival="57.00" arrivalLane="1_3_1" arrivalPos="186.40" arrivalSpeed="13.00" duration="40.00" routeLength="395.15" waitingTime="0.00" waitingCount="0" stopTime="0.00" timeLoss="9.48" rerouteNo="0" devices="tripinfo_NS_8" vType="cars" speedFactor="1.04" vaporized=""/>
    <tripinfo id="EN_10" depart="20.00" departLane="4_1_1" departPos="5.10" departSpeed="0.00" departDelay="0.00" arrival="62.50" arrivalLane="1_5_1" arrivalPos="186.40" arrivalSpeed="13.00" duration="42.50" routeLength="379.42" waitingTime="2.50" waitingCount="1" stopTime="0.00" timeLoss="12.28" rerouteNo="0" devices="tripinfo_EN_10" vType="cars" speedFactor="1.01" vaporized=""/>
    <tripinfo id="WE_0" depart="1.00" departLane="2_1_2" departPos="5.10" departSpeed="0.00" departDelay="0.00" arrival="63.00" arrivalLane="1_4_1" arrivalPos="186.40" arrivalSpeed="13.00" duration="62.00" routeLength="395.15" waitingTime="22.00" waitingCount="1" stopTime="0.00" timeLoss="31.55" rerouteNo="0" devices="tripinfo_WE_0" vType="cars" speedFactor="1.06" vaporized=""/>
    <tripinfo id="WE_1" depart="12.00" departLane="2_1_2" departPos="5.10" departSpeed="0.00" departDelay="0.00" arrival="63.00" arrivalLane="1_4_2" arrivalPos="186.40" arrivalSpeed="13.00" duration="51.00" routeLength="395.15" waitingTime="10.50" waitingCount="1" stopTime="0.00" timeLoss="20.55" rerouteNo="0" devices="tripinfo_WE_1" vType="cars" speedFactor="1.03" vaporized=""/>
    <tripinfo id="EW_0" depart="22.00" departLane="4_1_2" departPos="5.10" departSpeed="0.00" departDelay="0.00" arrival="63.00" arrivalLane="1_2_2" arrivalPos="186.40" arrivalSpeed="13.00" duration="41.00" routeLength="395.15" waitingTime="1.50" waitingCount="1" stopTime="0.00" timeLoss="10.55" rerouteNo="0" devices="tripinfo_EW_0" vType="cars" speedFactor="1.00" vaporized=""/>
    <tripinfo id="WS_3" depart="7.00" departLane="2_1_1" departPos="5.10" departSpeed="0.00" departDelay="0.00" arrival="64.50" arrivalLane="1_3_1" arrivalPos="186.40" arrivalSpeed="13.00" duration="57.50" routeLength="379.43" waitingTime="12.50" waitingCount="4" stopTime="0.00" timeLoss="27.02" rerouteNo="0" devices="tripinfo_WS_3" vType="cars" speedFactor="0.82" vaporized=""/>
    <tripinfo id="WE_2" depart="22.00" departLane="2_1_2" departPos="5.10" departSpeed="0.00" departDelay="0.00" arrival="64.50" arrivalLane="1_4_2" arrivalPos="186.40" arrivalSpeed="13.00" duration="42.50" routeLength="395.15" waitingTime="0.50" waitingCount="1" stopTime="0.00" timeLoss="12.09" rerouteNo="0" devices="tripinfo_WE_2" vType="cars" speedFactor="1.02" vaporized=""/>
    <tripinfo id="WS_6" depart="14.00" departLane="2_1_1" departPos="5.10" departSpeed="0.00" departDelay="0.00" arrival="67.00" arrivalLane="1_3_1" arrivalPos="186.40" arrivalSpeed="13.00" duration="53.00" routeLength="379.43" waitingTime="6.50" waitingCount="5" stopTime="0.00" timeLoss="22.84" rerouteNo="0" devices="tripinfo_WS_6" vType="cars" speedFactor="1.07" vaporized=""/>
    <tripinfo id="SN_9" depart="18.00" departLane="3_1_2" departPos="5.10" departSpeed="0.00" departDelay="0.00" arrival="78.00" arrivalLane="1_5_1" arrivalPos="186.40" arrivalSpeed="13.00" duration="60.00" routeLength="395.15" waitingTime="18.50" waitingCount="1" stopTime="0.00" timeLoss="29.55" rerouteNo="0" devices="tripinfo_SN_9" vType="cars" speedFactor="1.23" vaporized=""/>
    <tripinfo id="NS_11" depart="20.00" departLane="5_1_2" departPos="5.10" departSpeed="0.00" departDelay="0.00" arrival="78.00" arrivalLane="1_3_2" arrivalPos="186.40" arrivalSpeed="13.00" duration="58.00" routeLength="395.15" waitingTime="9.00" waitingCount="2" stopTime="0.00" timeLoss="27.55" rerouteNo="0" devices="tripinfo_NS_11" vType="cars" speedFactor="1.12" vaporized=""/>
    <tripinfo id="NS_13" depart="26.00" departLane="5_1_2" departPos="5.10" departSpeed="0.00" departDelay="0.00" arrival="78.00" arrivalLane="1_3_1" arrivalPos="186.40" arrivalSpeed="13.00" duration="52.00" routeLength="395.15" waitingTime="8.00" waitingCount="1" stopTime="0.00" timeLoss="21.55" rerouteNo="0" devices="tripinfo_NS_13" vType="cars" speedFactor="1.11" vaporized=""/>
    <tripinfo id="SN_15" depart="29.00" departLane="3_1_2" departPos="5.10" departSpeed="0.00" departDelay="0.00" arrival="78.00" arrivalLane="1_5_2" arrivalPos="186.40" arrivalSpeed="13.00" duration="49.00" routeLength="395.15" waitingTime="7.50" waitingCount="1" stopTime="0.00" timeLoss="18.55" rerouteNo="0" devices="tripinfo_SN_15" vType="cars" speedFactor="1.13" vaporized=""/>
    <tripinfo id="SN_12" depart="25.00" departLane="3_1_2" departPos="5.10" departSpeed="0.00" departDelay="0.00" arrival="79.50" arrivalLane="1_5_1" arrivalPos="186.40" arrivalSpeed="13.00" duration="54.50" routeLength="395.15" waitingTime="8.50" waitingCount="5" stopTime="0.00" timeLoss="24.09" rerouteNo="0" devices="tripinfo_SN_12" vType="cars" speedFactor="0.95" vaporized=""/>
    <tripinfo id="NS_14" depart="28.50" departLane="5_1_2" departPos="5.10" departSpeed="0.00" departDelay="1.50" arrival="79.50" arrivalLane="1_3_2" arrivalPos="186.40" arrivalSpeed="13.00" duration="51.00" routeLength="395.15" waitingTime="4.00" waitingCount="6" stopTime="0.00" timeLoss="20.59" rerouteNo="0" devices="tripinfo_NS_14" vType="cars" speedFactor="0.94" vaporized=""/>
    <tripinfo id="NS_16" depart="31.00" departLane="5_1_2" departPos="5.10" departSpeed="0.00" departDelay="1.00" arrival="79.50" arrivalLane="1_3_1" arrivalPos="186.40" arrivalSpeed="13.00" duration="48.50" routeLength="395.15" waitingTime="2.50" waitingCount="5" stopTime="0.00" timeLoss="18.09" rerouteNo="0" devices="tripinfo_NS_16" vType="cars" speedFactor="0.73" vaporized=""/>
    <tripinfo id="SN_17" depart="33.00" departLane="3_1_2" departPos="5.10" departSpeed="0.00" departDelay="0.00" arrival="79.50" arrivalLane="1_5_2" arrivalPos="186.40" arrivalSpeed="13.00" duration="46.50" routeLength="395.15" waitingTime="2.00" waitingCount="4" stopTime="0.00" timeLoss="16.09" rerouteNo="0" devices="tripinfo_SN_17" vType="cars" speedFactor="1.14" vaporized=""/>
    <tripinfo id="SE_19" depart="39.00" departLane="3_1_1" departPos="5.10" departSpeed="0.00" departDelay="0.00" arrival="83.00" arrivalLane="1_4_1" arrivalPos="186.40" arrivalSpeed="13.00" duration="44.00" routeLength="379.42" waitingTime="0.00" waitingCount="0" stopTime="0.00" timeLoss="13.83" rerouteNo="0" devices="tripinfo_SE_19" vType="cars" speedFactor="1.00" vaporized=""/>
    <tripinfo id="SN_20" depart="40.00" departLane="3_1_2" departPos="5.10" departSpeed="0.00" departDelay="0.00" arrival="85.00" arrivalLane="1_5_2" arrivalPos="186.40" arrivalSpeed="10.48" duration="45.00" routeLength="395.15" waitingTime="0.00" waitingCount="0" stopTime="0.00" timeLoss="14.33" rerouteNo="0" devices="tripinfo_SN_20" vType="cars" speedFactor="0.97" vaporized=""/>
    <tripinfo id="SN_18" depart="36.00" departLane="3_1_2" departPos="5.10" departSpeed="0.00" departDelay="0.00" arrival="88.00" arrivalLane="1_5_1" arrivalPos="186.40" arrivalSpeed="9.17" duration="52.00" routeLength="395.15" waitingTime="0.50" waitingCount="1" stopTime="0.00" timeLoss="21.33" rerouteNo="0" devices="tripinfo_SN_18" vType="cars" speedFactor="0.89" vaporized=""/>
    <tripinfo id="WE_3" depart="27.00" departLane="2_1_2" departPos="5.10" departSpeed="0.00" departDelay="0.00" arrival="98.00" arrivalLane="1_4_1" arrivalPos="186.40" arrivalSpeed="13.00" duration="71.00" routeLength="395.15" waitingTime="23.50" waitingCount="2" stopTime="0.00" timeLoss="40.55" rerouteNo="0" devices="tripinfo_WE_3" vType="cars" speedFactor="1.16" vaporized=""/>
    <tripinfo id="EW_1" depart="42.00" departLane="4_1_2" departPos="5.10" departSpeed="0.00" departDelay="0.00" arrival="98.00" arrivalLane="1_2_1" arrivalPos="186.40" arrivalSpeed="13.00" duration="56.00" routeLength="395.15" waitingTime="12.50" waitingCount="2" stopTime="0.00" timeLoss="25.55" rerouteNo="0" devices="tripinfo_EW_1" vType="cars" speedFactor="1.04" vaporized=""/>
    <tripinfo id="EW_2" depart="46.00" departLane="4_1_2" departPos="5.10" departSpeed="0.00" departDelay="0.00" arrival="98.00" arrivalLane="1_2_2" arrivalPos="186.40" arrivalSpeed="13.00" duration="52.00" routeLength="395.15" waitingTime="12.00" waitingCount="2" stopTime="0.00" timeLoss="21.55" rerouteNo="0" devices="tripinfo_EW_2" vType="cars" speedFactor="0.96" vaporized=""/>
    <tripinfo id="WE_4" depart="50.00" departLane="2_1_2" departPos="5.10" departSpeed="0.00" departDelay="0.00" arrival="98.00" arrivalLane="1_4_2" arrivalPos="186.40" arrivalSpeed="13.00" duration="48.00" routeLength="395.15" waitingTime="6.50" waitingCount="1" stopTime="0.00" timeLoss="17.55" rerouteNo="0" devices="tripinfo_WE_4" vType="cars" speedFactor="1.00" vaporized=""/>
    <tripinfo id="EW_3" depart="59.00" departLane="4_1_2" departPos="5.10" departSpeed="0.00" departDelay="0.00" arrival="99.50" arrivalLane="1_2_1" arrivalPos="186.40" arrivalSpeed="13.00" duration="40.50" routeLength="395.15" waitingTime="0.00" waitingCount="0" stopTime="0.00" timeLoss="10.09" rerouteNo="0" devices="tripinfo_EW_3" vType="cars" speedFactor="0.93" vaporized=""/>
    <tripinfo id="EW_4" depart="62.00" departLane="4_1_2" departPos="5.10" departSpeed="0.00" departDelay="0.00" arrival="104.00" arrivalLane="1_2_1" arrivalPos="186.40" arrivalSpeed="10.91" duration="42.00" routeLength="395.15" waitingTime="0.00" waitingCount="0" stopTime="0.00" timeLoss="11.48" rerouteNo="0" devices="tripinfo_EW_4" vType="cars" speedFactor="1.06" vaporized=""/>
    <tripinfo id="NW_21" depart="53.00" departLane="5_1_1" departPos="5.10" departSpeed="0.00" departDelay="0.00" arrival="113.00" arrivalLane="1_2_1" arrivalPos="186.40" arrivalSpeed="13.00" duration="60.00" routeLength="379.43" waitingTime="17.50" waitingCount="2" stopTime="0.00" timeLoss="30.16" rerouteNo="0" devices="tripinfo_NW_21" vType="cars" speedFactor="1.07" vaporized=""/>
    <tripinfo id="NS_22" depart="66.00" departLane="5_1_2" departPos="5.10" departSpeed="0.00" departDelay="0.00" arrival="113.00" arrivalLane="1_3_1" arrivalPos="186.40" arrivalSpeed="13.00" duration="47.00" routeLength="395.15" waitingTime="6.00" waitingCount="1" stopTime="0.00" timeLoss="16.55" rerouteNo="0" devices="tripinfo_NS_22" vType="cars" speedFactor="1.12" vaporized=""/>
    <tripinfo id="SN_25" depart="74.00" departLane="3_1_2" departPos="5.10" departSpeed="0.00" departDelay="0.00" arrival="113.00" arrivalLane="1_5_1" arrivalPos="186.40" arrivalSpeed="13.00" duration="39.00" routeLength="395.15" waitingTime="0.50" waitingCount="1" stopTime="0.00" timeLoss="8.55" rerouteNo="0" devices="tripinfo_SN_25" vType="cars" speedFactor="0.91" vaporized=""/>
    <tripinfo id="NW_23" depart="69.00" departLane="5_1_1" departPos="5.10" departSpeed="0.00" departDelay="0.00" arrival="114.50" arrivalLane="1_2_1" arrivalPos="186.40" arrivalSpeed="13.00" duration="45.50" routeLength="379.43" waitingTime="0.00" waitingCount="0" stopTime="0.00" timeLoss="15.90" rerouteNo="0" devices="tripinfo_NW_23" vType="cars" speedFactor="1.18" vaporized=""/>
    <tripinfo id="NS_26" depart="75.00" departLane="5_1_2" departPos="5.10" departSpeed="0.00" departDelay="0.00" arrival="114.50" arrivalLane="1_3_2" arrivalPos="186.40" arrivalSpeed="13.00" duration="39.50" routeLength="395.15" waitingTime="0.00" waitingCount="0" stopTime="0.00" timeLoss="8.82" rerouteNo="0" devices="tripinfo_NS_26" vType="cars" speedFactor="0.88" vaporized=""/>
    <tripinfo id="SE_27" depart="78.00" departLane="3_1_1" departPos="5.10" departSpeed="0.00" departDelay="0.00" arrival="114.50" arrivalLane="1_4_1" arrivalPos="186.40" arrivalSpeed="13.00" duration="36.50" routeLength="379.42" waitingTime="0.00" waitingCount="0" stopTime="0.00" timeLoss="6.34" rerouteNo="0" devices="tripinfo_SE_27" vType="cars" speedFactor="1.13" vaporized=""/>
    <tripinfo id="SN_28" depart="81.00" departLane="3_1_2" departPos="5.10" departSpeed="0.00" departDelay="0.00" arrival="116.50" arrivalLane="1_5_2" arrivalPos="186.40" arrivalSpeed="13.00" duration="35.50" routeLength="395.15" waitingTime="0.00" waitingCount="0" stopTime="0.00" timeLoss="4.96" rerouteNo="0" devices="tripinfo_SN_28" vType="cars" speedFactor="1.05" vaporized=""/>
    <tripinfo id="NS_29" depart="83.00" departLane="5_1_2" departPos="5.10" departSpeed="0.00" departDelay="0.00" arrival="118.00" arrivalLane="1_3_1" arrivalPos="186.40" arrivalSpeed="13.00" duration="35.00" routeLength="395.15" waitingTime="0.00" waitingCount="0" stopTime="0.00" timeLoss="4.48" rerouteNo="0" devices="tripinfo_NS_29" vType="cars" speedFactor="0.91" vaporized=""/>
    <tripinfo id="SN_30" depart="83.50" departLane="3_1_2" departPos="5.10" departSpeed="0.00" departDelay="0.50" arrival="119.50" arrivalLane="1_5_1" arrivalPos="186.40" arrivalSpeed="13.00" duration="36.00" routeLength="395.15" waitingTime="0.00" waitingCount="0" stopTime="0.00" timeLoss="5.21" rerouteNo="0" devices="tripinfo_SN_30" vType="cars" speedFactor="1.00" vaporized=""/>
    <tripinfo id="SN_31" depart="86.00" departLane="3_1_2" departPos="5.10" departSpeed="0.00" departDelay="2.00" arrival="122.00" arrivalLane="1_5_1" arrivalPos="186.40" arrivalSpeed="13.00" duration="36.00" routeLength="395.15" waitingTime="0.00" waitingCount="0" stopTime="0.00" timeLoss="5.57" rerouteNo="0" devices="tripinfo_SN_31" vType="cars" speedFactor="1.03" vaporized=""/>
    <tripinfo id="NS_32" depart="87.00" departLane="5_1_2" departPos="5.10" departSpeed="0.00" departDelay="0.00" arrival="124.00" arrivalLane="1_3_1" arrivalPos="186.40" arrivalSpeed="13.00" duration="37.00" routeLength="395.15" waitingTime="0.00" waitingCount="0" stopTime="0.00" timeLoss="6.45" rerouteNo="0" devices="tripinfo_NS_32" vType="cars" speedFactor="0.98" vaporized=""/>
    <tripinfo id="SN_33" depart="90.00" departLane="3_1_2" departPos="5.10" departSpeed="0.00" departDelay="0.00" arrival="129.00" arrivalLane="1_5_1" arrivalPos="186.40" arrivalSpeed="11.00" duration="39.00" routeLength="395.15" waitingTime="0.00" waitingCount="0" stopTime="0.00" timeLoss="8.48" rerouteNo="0" devices="tripinfo_SN_33" vType="cars" speedFactor="1.09" vaporized=""/>
    <tripinfo id="WE_5" depart="75.00" departLane="2_1_2" departPos="5.10" departSpeed="0.00" departDelay="0.00" arrival="138.00" arrivalLane="1_4_1" arrivalPos="186.40" arrivalSpeed="13.00" duration="63.00" routeLength="395.15" waitingTime="18.00" waitingCount="2" stopTime="0.00" timeLoss="32.55" rerouteNo="0" devices="tripinfo_WE_5" vType="cars" speedFactor="1.14" vaporized=""/>
    <tripinfo id="WE_6" depart="78.00" departLane="2_1_2" departPos="5.10" departSpeed="0.00" departDelay="1.00" arrival="138.00" arrivalLane="1_4_2" arrivalPos="186.40" arrivalSpeed="13.00" duration="60.00" routeLength="395.15" waitingTime="16.00" waitingCount="3" stopTime="0.00" timeLoss="29.55" rerouteNo="0" devices="tripinfo_WE_6" vType="cars" speedFactor="0.99" vaporized=""/>
    <tripinfo id="WN_7" depart="16.00" departLane="2_1_3" departPos="5.10" departSpeed="0.00" departDelay="0.00" arrival="139.00" arrivalLane="1_5_2" arrivalPos="186.40" arrivalSpeed="13.00" duration="123.00" routeLength="392.22" waitingTime="82.00" waitingCount="2" stopTime="0.00" timeLoss="91.81" rerouteNo="0" devices="tripinfo_WN_7" vType="cars" speedFactor="0.96" vaporized=""/>
    <tripinfo id="WE_7" depart="89.00" departLane="2_1_2" departPos="5.10" departSpeed="0.00" departDelay="0.00" arrival="139.50" arrivalLane="1_4_1" arrivalPos="186.40" arrivalSpeed="13.00" duration="50.50" routeLength="395.15" waitingTime="4.00" waitingCount="4" stopTime="0.00" timeLoss="20.09" rerouteNo="0" devices="tripinfo_WE_7" vType="cars" speedFactor="0.94" vaporized=""/>
    <tripinfo id="WE_8" depart="92.00" departLane="2_1_2" departPos="5.10" departSpeed="0.00" departDelay="0.00" arrival="139.50" arrivalLane="1_4_2" arrivalPos="186.40" arrivalSpeed="13.00" duration="47.50" routeLength="395.15" waitingTime="2.00" waitingCount="1" stopTime="0.00" timeLoss="17.09" rerouteNo="0" devices="tripinfo_WE_8" vType="cars" speedFactor="0.90" vaporized=""/>
    <tripinfo id="WN_35" depart="99.00" departLane="2_1_3" departPos="5.10" departSpeed="0.00" departDelay="0.00" arrival="141.00" arrivalLane="1_5_2" arrivalPos="186.40" arrivalSpeed="13.00" duration="42.00" routeLength="392.22" waitingTime="0.00" waitingCount="0" stopTime="0.00" timeLoss="10.77" rerouteNo="0" devices="tripinfo_WN_35" vType="cars" speedFactor="0.96" vaporized=""/>
    <tripinfo id="NW_36" depart="101.00" departLane="5_1_1" departPos="5.10" departSpeed="0.00" departDelay="0.00" arrival="143.50" arrivalLane="1_2_1" arrivalPos="186.40" arrivalSpeed="13.00" duration="42.50" routeLength="379.43" waitingTime="0.50" waitingCount="1" stopTime="0.00" timeLoss="12.40" rerouteNo="0" devices="tripinfo_NW_36" vType="cars" speedFactor="0.92" vaporized=""/>
    <tripinfo id="WE_9" depart="106.00" departLane="2_1_2" departPos="5.10" departSpeed="0.00" departDelay="0.00" arrival="145.00" arrivalLane="1_4_1" arrivalPos="186.40" arrivalSpeed="13.00" duration="39.00" routeLength="395.15" waitingTime="0.00" waitingCount="0" stopTime="0.00" timeLoss="8.15" rerouteNo="0" devices="tripinfo_WE_9" vType="cars" speedFactor="1.03" vaporized=""/>
    <tripinfo id="EW_5" depart="76.00" departLane="4_1_2" departPos="5.10" departSpeed="0.00" departDelay="0.00" arrival="153.00" arrivalLane="1_2_1" arrivalPos="186.40" arrivalSpeed="13.00" duration="77.00" routeLength="395.15" waitingTime="32.00" waitingCount="1" stopTime="0.00" timeLoss="46.55" rerouteNo="0" devices="tripinfo_EW_5" vType="cars" speedFactor="1.08" vaporized=""/>
    <tripinfo id="EW_6" depart="92.00" departLane="4_1_2" departPos="5.10" departSpeed="0.00" departDelay="0.00" arrival="153.00" arrivalLane="1_2_2" arrivalPos="186.40" arrivalSpeed="13.00" duration="61.00" routeLength="395.15" waitingTime="20.50" waitingCount="2" stopTime="0.00" timeLoss="30.55" rerouteNo="0" devices="tripinfo_EW_6" vType="cars" speedFactor="0.89" vaporized=""/>
    <tripinfo id="WE_10" depart="116.00" departLane="2_1_2" departPos="5.10" departSpeed="0.00" departDelay="0.00" arrival="153.50" arrivalLane="1_4_1" arrivalPos="186.40" arrivalSpeed="13.00" duration="37.50" routeLength="395.15" waitingTime="0.00" waitingCount="0" stopTime="0.00" timeLoss="6.94" rerouteNo="0" devices="tripinfo_WE_10" vType="cars" speedFactor="1.08" vaporized=""/>
    <tripinfo id="EN_39" depart="109.00" departLane="4_1_1" departPos="5.10" departSpeed="0.00" departDelay="0.00" arrival="154.00" arrivalLane="1_5_1" arrivalPos="186.40" arrivalSpeed="13.00" duration="45.00" routeLength="379.42" waitingTime="1.50" waitingCount="3" stopTime="0.00" timeLoss="14.87" rerouteNo="0" devices="tripinfo_EN_39" vType="cars" speedFactor="1.06" vaporized=""/>
    <tripinfo id="EW_7" depart="111.00" departLane="4_1_2" departPos="5.10" departSpeed="0.00" departDelay="0.00" arrival="154.50" arrivalLane="1_2_1" arrivalPos="186.40" arrivalSpeed="13.00" duration="43.50" routeLength="395.15" waitingTime="0.00" waitingCount="0" stopTime="0.00" timeLoss="13.09" rerouteNo="0" devices="tripinfo_EW_7" vType="cars" speedFactor="1.03" vaporized=""/>
    <tripinfo id="EW_8" depart="123.00" departLane="4_1_2" departPos="5.10" departSpeed="0.00" departDelay="0.00" arrival="158.50" arrivalLane="1_2_1" arrivalPos="186.40" arrivalSpeed="13.00" duration="35.50" routeLength="395.15" waitingTime="0.00" waitingCount="0" stopTime="0.00" timeLoss="4.71" rerouteNo="0" devices="tripinfo_EW_8" vType="cars" speedFactor="0.90" vaporized=""/>
    <tripinfo id="WE_11" depart="119.00" departLane="2_1_2" departPos="5.10" departSpeed="0.00" departDelay="2.00" arrival="159.00" arrivalLane="1_4_1" arrivalPos="186.40" arrivalSpeed="11.00" duration="40.00" routeLength="395.15" waitingTime="0.00" waitingCount="0" stopTime="0.00" timeLoss="9.33" rerouteNo="0" devices="tripinfo_WE_11" vType="cars" speedFactor="0.94" vaporized=""/>
    <tripinfo id="WE_12" depart="121.50" departLane="2_1_2" departPos="5.10" departSpeed="0.00" departDelay="3.50" arrival="160.50" arrivalLane="1_4_1" arrivalPos="186.40" arrivalSpeed="13.00" duration="39.00" routeLength="395.15" waitingTime="0.00" waitingCount="0" stopTime="0.00" timeLoss="8.24" rerouteNo="0" devices="tripinfo_WE_12" vType="cars" speedFactor="0.92" vaporized=""/>
    <tripinfo id="WE_13" depart="124.50" departLane="2_1_2" departPos="5.10" departSpeed="0.00" departDelay="5.50" arrival="162.00" arrivalLane="1_4_1" arrivalPos="186.40" arrivalSpeed="13.00" duration="37.50" routeLength="395.15" waitingTime="0.00" waitingCount="0" stopTime="0.00" timeLoss="6.72" rerouteNo="0" devices="tripinfo_WE_13" vType="cars" speedFactor="1.08" vaporized=""/>
    <tripinfo id="WE_14" depart="126.50" departLane="2_1_2" departPos="5.10" departSpeed="0.00" departDelay="4.50" arrival="163.50" arrivalLane="1_4_1" arrivalPos="186.40" arrivalSpeed="13.00" duration="37.00" routeLength="395.15" waitingTime="0.00" waitingCount="0" stopTime="0.00" timeLoss="6.26" rerouteNo="0" devices="tripinfo_WE_14" vType="cars" speedFactor="0.89" vaporized=""/>
    <tripinfo id="EW_9" depart="128.00" departLane="4_1_2" departPos="5.10" departSpeed="0.00" departDelay="0.00" arrival="164.00" arrivalLane="1_2_1" arrivalPos="186.40" arrivalSpeed="13.00" duration="36.00" routeLength="395.15" waitingTime="0.00" waitingCount="0" stopTime="0.00" timeLoss="5.19" rerouteNo="0" devices="tripinfo_EW_9" vType="cars" speedFactor="1.10" vaporized=""/>
    <tripinfo id="WE_15" depart="129.00" departLane="2_1_2" departPos="5.10" departSpeed="0.00" departDelay="4.00" arrival="169.00" arrivalLane="1_4_1" arrivalPos="186.40" arrivalSpeed="11.00" duration="40.00" routeLength="395.15" waitingTime="0.00" waitingCount="0" stopTime="0.00" timeLoss="9.39" rerouteNo="0" devices="tripinfo_WE_15" vType="cars" speedFactor="0.93" vaporized=""/>
    <tripinfo id="SN_34" depart="97.00" departLane="3_1_2" departPos="5.10" departSpeed="0.00" departDelay="0.00" arrival="178.00" arrivalLane="1_5_1" arrivalPos="186.40" arrivalSpeed="13.00" duration="81.00" routeLength="395.15" waitingTime="37.00" waitingCount="2" stopTime="0.00" timeLoss="50.55" rerouteNo="0" devices="tripinfo_SN_34" vType="cars" speedFactor="1.14" vaporized=""/>
    <tripinfo id="NS_37" depart="105.00" departLane="5_1_2" departPos="5.10" departSpeed="0.00" departDelay="0.00" arrival="178.00" arrivalLane="1_3_2" arrivalPos="186.40" arrivalSpeed="13.00" duration="73.00" routeLength="395.15" waitingTime="32.00" waitingCount="2" stopTime="0.00" timeLoss="42.55" rerouteNo="0" devices="tripinfo_NS_37" vType="cars" speedFactor="1.09" vaporized=""/>
    <tripinfo id="SN_38" depart="107.00" departLane="3_1_2" departPos="5.10" departSpeed="0.00" departDelay="0.00" arrival="178.00" arrivalLane="1_5_2" arrivalPos="186.40" arrivalSpeed="13.00" duration="71.00" routeLength="395.15" waitingTime="30.00" waitingCount="1" stopTime="0.00" timeLoss="40.55" rerouteNo="0" devices="tripinfo_SN_38" vType="cars" speedFactor="1.08" vaporized=""/>
    <tripinfo id="NS_41" depart="111.00" departLane="5_1_2" departPos="5.10" departSpeed="0.00" departDelay="0.00" arrival="178.00" arrivalLane="1_3_1" arrivalPos="186.40" arrivalSpeed="13.00" duration="67.00" routeLength="395.15" waitingTime="27.00" waitingCount="1" stopTime="0.00" timeLoss="36.55" rerouteNo="0" devices="tripinfo_NS_41" vType="cars" speedFactor="1.03" vaporized=""/>
    <tripinfo id="SN_40" depart="110.00" departLane="3_1_2" departPos="5.10" departSpeed="0.00" departDelay="0.00" arrival="179.50" arrivalLane="1_5_1" arrivalPos="186.40" arrivalSpeed="13.00" duration="69.50" routeLength="395.15" waitingTime="21.00" waitingCount="3" stopTime="0.00" timeLoss="39.09" rerouteNo="0" devices="tripinfo_SN_40" vType="cars" speedFactor="1.10" vaporized=""/>
    <tripinfo id="NS_42" depart="122.00" departLane="5_1_2" departPos="5.10" departSpeed="0.00" departDelay="0.00" arrival="179.50" arrivalLane="1_3_1" arrivalPos="186.40" arrivalSpeed="13.00" duration="57.50" routeLength="395.15" waitingTime="12.00" waitingCount="6" stopTime="0.00" timeLoss="27.09" rerouteNo="0" devices="tripinfo_NS_42" vType="cars" speedFactor="0.97" vaporized=""/>
    <tripinfo id="SN_45" depart="128.00" departLane="3_1_2" departPos="5.10" departSpeed="0.00" departDelay="0.00" arrival="179.50" arrivalLane="1_5_2" arrivalPos="186.40" arrivalSpeed="13.00" duration="51.50" routeLength="395.15" waitingTime="6.00" waitingCount="5" stopTime="0.00" timeLoss="21.09" rerouteNo="0" devices="tripinfo_SN_45" vType="cars" speedFactor="1.00" vaporized=""/>
    <tripinfo id="NS_49" depart="134.00" departLane="5_1_2" departPos="5.10" departSpeed="0.00" departDelay="0.00" arrival="179.50" arrivalLane="1_3_2" arrivalPos="186.40" arrivalSpeed="13.00" duration="45.50" routeLength="395.15" waitingTime="0.50" waitingCount="1" stopTime="0.00" timeLoss="15.09" rerouteNo="0" devices="tripinfo_NS_49" vType="cars" speedFactor="1.06" vaporized=""/>
    <tripinfo id="NS_54" depart="148.00" departLane="5_1_2" departPos="5.10" departSpeed="0.00" departDelay="0.00" arrival="183.00" arrivalLane="1_3_1" arrivalPos="186.40" arrivalSpeed="13.00" duration="35.00" routeLength="395.15" waitingTime="0.00" waitingCount="0" stopTime="0.00" timeLoss="4.54" rerouteNo="0" devices="tripinfo_NS_54" vType="cars" speedFactor="1.02" vaporized=""/>
    <tripinfo id="SN_50" depart="135.00" departLane="3_1_2" departPos="5.10" departSpeed="0.00" departDelay="1.00" arrival="184.00" arrivalLane="1_5_1" arrivalPos="186.40" arrivalSpeed="13.00" duration="49.00" routeLength="395.15" waitingTime="2.00" waitingCount="4" stopTime="0.00" timeLoss="18.42" rerouteNo="0" devices="tripinfo_SN_50" vType="cars" speedFactor="0.83" vaporized=""/>
    <tripinfo id="SE_51" depart="135.00" departLane="3_1_1" departPos="5.10" departSpeed="0.00" departDelay="0.00" arrival="187.00" arrivalLane="1_4_1" arrivalPos="186.40" arrivalSpeed="9.14" duration="52.00" routeLength="379.42" waitingTime="0.00" waitingCount="0" stopTime="0.00" timeLoss="21.63" rerouteNo="0" devices="tripinfo_SE_51" vType="cars" speedFactor="0.95" vaporized=""/>