<?xml version="1.0" encoding="UTF-8"?>

<!-- generated on 2025-03-21 19:15:11 by Eclipse SUMO GUI Version 1.20.0
<configuration xmlns:xsi="http://www.w3.org/2001/XMLSchema-instance" xsi:noNamespaceSchemaLocation="http://sumo.dlr.de/xsd/sumoConfiguration.xsd">

    <input>
        <net-file value="/home/naderian/Desktop/Shakiba/MMSVCC/environment/network_model/single_intersection_pedestrian_X.net.xml"/>
        <route-files value="/home/naderian/Desktop/Shakiba/MMSVCC/environment/network_model/single_intersection.rou.xml"/>
        <additional-files value="/home/naderian/Desktop/Shakiba/MMSVCC/environment/network_model/single_intersection.add_fixed_time.xml"/>
    </input>

    <output>
        <queue-output value="/home/naderian/Desktop/Shakiba/MMSVCC/environment/simulation_data/single_intersection/queues_fixed_time_asymmetric_pene_100.xml"/>
        <tripinfo-output value="/home/naderian/Desktop/Shakiba/MMSVCC/environment/simulation_data/single_intersection/tripinfo_fixed_time_asymmetric_pene_100.xml"/>
    </output>

    <time>
        <begin value="0"/>
        <step-length value="0.5"/>
    </time>

    <processing>
        <waiting-time-memory value="1000"/>
    </processing>

    <report>
        <verbose value="true"/>
        <no-step-log value="true"/>
    </report>

    <traci_server>
        <remote-port value="51907"/>
    </traci_server>

    <gui_only>
        <start value="true"/>
    </gui_only>

</configuration>
-->

<tripinfos xmlns:xsi="http://www.w3.org/2001/XMLSchema-instance" xsi:noNamespaceSchemaLocation="http://sumo.dlr.de/xsd/tripinfo_file.xsd">
    <tripinfo id="SN_0" depart="0.00" departLane="3_1_2" departPos="5.10" departSpeed="0.00" departDelay="0.00" arrival="35.50" arrivalLane="1_5_1" arrivalPos="186.40" arrivalSpeed="11.82" duration="35.50" routeLength="395.15" waitingTime="0.00" waitingCount="0" stopTime="0.00" timeLoss="4.99" rerouteNo="0" devices="tripinfo_SN_0" vType="cars" speedFactor="1.04" vaporized=""/>
    <tripinfo id="NS_1" depart="1.00" departLane="5_1_2" departPos="5.10" departSpeed="0.00" departDelay="0.00" arrival="38.00" arrivalLane="1_3_1" arrivalPos="186.40" arrivalSpeed="12.65" duration="37.00" routeLength="395.15" waitingTime="0.00" waitingCount="0" stopTime="0.00" timeLoss="6.30" rerouteNo="0" devices="tripinfo_NS_1" vType="cars" speedFactor="0.95" vaporized=""/>
    <tripinfo id="SN_2" depart="5.00" departLane="3_1_2" departPos="5.10" departSpeed="0.00" departDelay="0.00" arrival="40.00" arrivalLane="1_5_1" arrivalPos="186.40" arrivalSpeed="11.68" duration="35.00" routeLength="395.15" waitingTime="0.00" waitingCount="0" stopTime="0.00" timeLoss="4.48" rerouteNo="0" devices="tripinfo_SN_2" vType="cars" speedFactor="0.85" vaporized=""/>
    <tripinfo id="NE_6" depart="20.00" departLane="5_1_3" departPos="5.10" departSpeed="0.00" departDelay="0.00" arrival="57.50" arrivalLane="1_4_2" arrivalPos="186.40" arrivalSpeed="12.15" duration="37.50" routeLength="392.22" waitingTime="0.00" waitingCount="0" stopTime="0.00" timeLoss="6.43" rerouteNo="0" devices="tripinfo_NE_6" vType="cars" speedFactor="1.01" vaporized=""/>
    <tripinfo id="EW_1" depart="37.00" departLane="4_1_2" departPos="5.10" departSpeed="0.00" departDelay="0.00" arrival="73.00" arrivalLane="1_2_2" arrivalPos="186.40" arrivalSpeed="12.07" duration="36.00" routeLength="395.15" waitingTime="0.00" waitingCount="0" stopTime="0.00" timeLoss="5.27" rerouteNo="0" devices="tripinfo_EW_1" vType="cars" speedFactor="1.00" vaporized=""/>
    <tripinfo id="EW_0" depart="32.00" departLane="4_1_2" departPos="5.10" departSpeed="0.00" departDelay="0.00" arrival="73.50" arrivalLane="1_2_1" arrivalPos="186.40" arrivalSpeed="12.05" duration="41.50" routeLength="395.15" waitingTime="1.50" waitingCount="1" stopTime="0.00" timeLoss="11.06" rerouteNo="0" devices="tripinfo_EW_0" vType="cars" speedFactor="0.84" vaporized=""/>
    <tripinfo id="WE_1" depart="10.00" departLane="2_1_2" departPos="5.10" departSpeed="0.00" departDelay="0.00" arrival="74.00" arrivalLane="1_4_2" arrivalPos="186.40" arrivalSpeed="11.96" duration="64.00" routeLength="395.15" waitingTime="23.50" waitingCount="1" stopTime="0.00" timeLoss="33.38" rerouteNo="0" devices="tripinfo_WE_1" vType="cars" speedFactor="1.10" vaporized=""/>
    <tripinfo id="WE_0" depart="1.00" departLane="2_1_2" departPos="5.10" departSpeed="0.00" departDelay="0.00" arrival="75.00" arrivalLane="1_4_1" arrivalPos="186.40" arrivalSpeed="12.69" duration="74.00" routeLength="395.15" waitingTime="33.00" waitingCount="1" stopTime="0.00" timeLoss="43.13" rerouteNo="0" devices="tripinfo_WE_0" vType="cars" speedFactor="0.86" vaporized=""/>
    <tripinfo id="WE_2" depart="12.50" departLane="2_1_2" departPos="5.10" departSpeed="0.00" departDelay="0.50" arrival="76.00" arrivalLane="1_4_2" arrivalPos="186.40" arrivalSpeed="12.42" duration="63.50" routeLength="395.15" waitingTime="19.00" waitingCount="1" stopTime="0.00" timeLoss="32.65" rerouteNo="0" devices="tripinfo_WE_2" vType="cars" speedFactor="1.17" vaporized=""/>
    <tripinfo id="WS_3" depart="7.00" departLane="2_1_1" departPos="5.10" departSpeed="0.00" departDelay="0.00" arrival="76.50" arrivalLane="1_3_1" arrivalPos="186.40" arrivalSpeed="12.78" duration="69.50" routeLength="379.43" waitingTime="25.00" waitingCount="1" stopTime="0.00" timeLoss="39.38" rerouteNo="0" devices="tripinfo_WS_3" vType="cars" speedFactor="0.93" vaporized=""/>
    <tripinfo id="EW_2" depart="42.00" departLane="4_1_2" departPos="5.10" departSpeed="0.00" departDelay="0.00" arrival="77.50" arrivalLane="1_2_1" arrivalPos="186.40" arrivalSpeed="11.59" duration="35.50" routeLength="395.15" waitingTime="0.00" waitingCount="0" stopTime="0.00" timeLoss="5.09" rerouteNo="0" devices="tripinfo_EW_2" vType="cars" speedFactor="1.13" vaporized=""/>
    <tripinfo id="WE_3" depart="19.00" departLane="2_1_2" departPos="5.10" departSpeed="0.00" departDelay="0.00" arrival="78.50" arrivalLane="1_4_1" arrivalPos="186.40" arrivalSpeed="12.99" duration="59.50" routeLength="395.15" waitingTime="15.50" waitingCount="1" stopTime="0.00" timeLoss="28.89" rerouteNo="0" devices="tripinfo_WE_3" vType="cars" speedFactor="0.90" vaporized=""/>
    <tripinfo id="WS_5" depart="16.00" departLane="2_1_1" departPos="5.10" departSpeed="0.00" departDelay="0.00" arrival="79.50" arrivalLane="1_3_1" arrivalPos="186.40" arrivalSpeed="12.88" duration="63.50" routeLength="379.43" waitingTime="17.50" waitingCount="1" stopTime="0.00" timeLoss="33.13" rerouteNo="0" devices="tripinfo_WS_5" vType="cars" speedFactor="1.02" vaporized=""/>
    <tripinfo id="WE_5" depart="29.00" departLane="2_1_2" departPos="5.10" departSpeed="0.00" departDelay="0.00" arrival="80.50" arrivalLane="1_4_1" arrivalPos="186.40" arrivalSpeed="12.44" duration="51.50" routeLength="395.15" waitingTime="5.50" waitingCount="1" stopTime="0.00" timeLoss="20.76" rerouteNo="0" devices="tripinfo_WE_5" vType="cars" speedFactor="0.96" vaporized=""/>
    <tripinfo id="WE_4" depart="26.00" departLane="2_1_2" departPos="5.10" departSpeed="0.00" departDelay="0.00" arrival="82.00" arrivalLane="1_4_1" arrivalPos="186.40" arrivalSpeed="12.78" duration="56.00" routeLength="395.15" waitingTime="8.50" waitingCount="1" stopTime="0.00" timeLoss="25.60" rerouteNo="0" devices="tripinfo_WE_4" vType="cars" speedFactor="1.00" vaporized=""/>
    <tripinfo id="WE_6" depart="31.50" departLane="2_1_2" departPos="5.10" departSpeed="0.00" departDelay="1.50" arrival="82.50" arrivalLane="1_4_2" arrivalPos="186.40" arrivalSpeed="11.69" duration="51.00" routeLength="395.15" waitingTime="4.00" waitingCount="1" stopTime="0.00" timeLoss="20.60" rerouteNo="0" devices="tripinfo_WE_6" vType="cars" speedFactor="0.89" vaporized=""/>
    <tripinfo id="EW_3" depart="62.00" departLane="4_1_2" departPos="5.10" departSpeed="0.00" departDelay="0.00" arrival="98.50" arrivalLane="1_2_1" arrivalPos="186.40" arrivalSpeed="12.24" duration="36.50" routeLength="395.15" waitingTime="0.00" waitingCount="0" stopTime="0.00" timeLoss="5.69" rerouteNo="0" devices="tripinfo_EW_3" vType="cars" speedFactor="0.98" vaporized=""/>
    <tripinfo id="ES_4" depart="14.00" departLane="4_1_3" departPos="5.10" departSpeed="0.00" departDelay="0.00" arrival="112.50" arrivalLane="1_3_2" arrivalPos="186.40" arrivalSpeed="12.87" duration="98.50" routeLength="392.22" waitingTime="56.00" waitingCount="1" stopTime="0.00" timeLoss="67.88" rerouteNo="0" devices="tripinfo_ES_4" vType="cars" speedFactor="1.12" vaporized=""/>
    <tripinfo id="SN_8" depart="25.00" departLane="3_1_2" departPos="5.10" departSpeed="0.00" departDelay="0.00" arrival="128.50" arrivalLane="1_5_1" arrivalPos="186.40" arrivalSpeed="12.23" duration="103.50" routeLength="395.15" waitingTime="63.50" waitingCount="1" stopTime="0.00" timeLoss="72.90" rerouteNo="0" devices="tripinfo_SN_8" vType="cars" speedFactor="0.98" vaporized=""/>
    <tripinfo id="NS_7" depart="22.00" departLane="5_1_2" departPos="5.10" departSpeed="0.00" departDelay="0.00" arrival="129.00" arrivalLane="1_3_1" arrivalPos="186.40" arrivalSpeed="12.91" duration="107.00" routeLength="395.15" waitingTime="64.50" waitingCount="1" stopTime="0.00" timeLoss="76.25" rerouteNo="0" devices="tripinfo_NS_7" vType="cars" speedFactor="1.04" vaporized=""/>
    <tripinfo id="NS_12" depart="34.00" departLane="5_1_2" departPos="5.10" departSpeed="0.00" departDelay="0.00" arrival="129.00" arrivalLane="1_3_2" arrivalPos="186.40" arrivalSpeed="12.49" duration="95.00" routeLength="395.15" waitingTime="53.00" waitingCount="1" stopTime="0.00" timeLoss="64.36" rerouteNo="0" devices="tripinfo_NS_12" vType="cars" speedFactor="0.90" vaporized=""/>
    <tripinfo id="SN_10" depart="30.50" departLane="3_1_2" departPos="5.10" departSpeed="0.00" departDelay="1.50" arrival="129.50" arrivalLane="1_5_2" arrivalPos="186.40" arrivalSpeed="12.44" duration="99.00" routeLength="395.15" waitingTime="58.50" waitingCount="1" stopTime="0.00" timeLoss="68.55" rerouteNo="0" devices="tripinfo_SN_10" vType="cars" speedFactor="0.97" vaporized=""/>
    <tripinfo id="SN_9" depart="28.00" departLane="3_1_2" departPos="5.10" departSpeed="0.00" departDelay="2.00" arrival="130.50" arrivalLane="1_5_1" arrivalPos="186.40" arrivalSpeed="11.75" duration="102.50" routeLength="395.15" waitingTime="58.00" waitingCount="1" stopTime="0.00" timeLoss="71.81" rerouteNo="0" devices="tripinfo_SN_9" vType="cars" speedFactor="1.17" vaporized=""/>
    <tripinfo id="NS_17" depart="50.00" departLane="5_1_2" departPos="5.10" departSpeed="0.00" departDelay="0.00" arrival="131.00" arrivalLane="1_3_1" arrivalPos="186.40" arrivalSpeed="12.25" duration="81.00" routeLength="395.15" waitingTime="36.00" waitingCount="1" stopTime="0.00" timeLoss="50.36" rerouteNo="0" devices="tripinfo_NS_17" vType="cars" speedFactor="0.95" vaporized=""/>
    <tripinfo id="SN_11" depart="33.00" departLane="3_1_2" departPos="5.10" departSpeed="0.00" departDelay="3.00" arrival="131.50" arrivalLane="1_5_2" arrivalPos="186.40" arrivalSpeed="11.56" duration="98.50" routeLength="395.15" waitingTime="53.50" waitingCount="1" stopTime="0.00" timeLoss="67.93" rerouteNo="0" devices="tripinfo_SN_11" vType="cars" speedFactor="1.02" vaporized=""/>
    <tripinfo id="NS_27" depart="89.00" departLane="5_1_2" departPos="5.10" departSpeed="0.00" departDelay="0.00" arrival="132.50" arrivalLane="1_3_1" arrivalPos="186.40" arrivalSpeed="12.88" duration="43.50" routeLength="395.15" waitingTime="0.00" waitingCount="0" stopTime="0.00" timeLoss="13.11" rerouteNo="0" devices="tripinfo_NS_27" vType="cars" speedFactor="0.90" vaporized=""/>
    <tripinfo id="SN_14" depart="38.00" departLane="3_1_2" departPos="5.10" departSpeed="0.00" departDelay="0.00" arrival="133.50" arrivalLane="1_5_2" arrivalPos="186.40" arrivalSpeed="12.27" duration="95.50" routeLength="395.15" waitingTime="49.00" waitingCount="1" stopTime="0.00" timeLoss="64.87" rerouteNo="0" devices="tripinfo_SN_14" vType="cars" speedFactor="0.96" vaporized=""/>
    <tripinfo id="NS_29" depart="92.00" departLane="5_1_2" departPos="5.10" departSpeed="0.00" departDelay="0.00" arrival="134.50" arrivalLane="1_3_2" arrivalPos="186.40" arrivalSpeed="12.03" duration="42.50" routeLength="395.15" waitingTime="0.00" waitingCount="0" stopTime="0.00" timeLoss="11.77" rerouteNo="0" devices="tripinfo_NS_29" vType="cars" speedFactor="1.02" vaporized=""/>
    <tripinfo id="SN_16" depart="41.00" departLane="3_1_2" departPos="5.10" departSpeed="0.00" departDelay="1.00" arrival="136.50" arrivalLane="1_5_1" arrivalPos="186.40" arrivalSpeed="12.81" duration="95.50" routeLength="395.15" waitingTime="46.50" waitingCount="1" stopTime="0.00" timeLoss="64.81" rerouteNo="0" devices="tripinfo_SN_16" vType="cars" speedFactor="0.93" vaporized=""/>
    <tripinfo id="NW_19" depart="53.00" departLane="5_1_1" departPos="5.10" departSpeed="0.00" departDelay="0.00" arrival="137.00" arrivalLane="1_2_1" arrivalPos="186.40" arrivalSpeed="12.80" duration="84.00" routeLength="379.43" waitingTime="37.50" waitingCount="2" stopTime="0.00" timeLoss="53.91" rerouteNo="0" devices="tripinfo_NW_19" vType="cars" speedFactor="1.00" vaporized=""/>
    <tripinfo id="SN_20" depart="60.00" departLane="3_1_2" departPos="5.10" departSpeed="0.00" departDelay="0.00" arrival="138.00" arrivalLane="1_5_2" arrivalPos="186.40" arrivalSpeed="12.49" duration="78.00" routeLength="395.15" waitingTime="29.50" waitingCount="1" stopTime="0.00" timeLoss="47.48" rerouteNo="0" devices="tripinfo_SN_20" vType="cars" speedFactor="0.83" vaporized=""/>
    <tripinfo id="NW_21" depart="69.00" departLane="5_1_1" departPos="5.10" departSpeed="0.00" departDelay="0.00" arrival="139.50" arrivalLane="1_2_1" arrivalPos="186.40" arrivalSpeed="12.82" duration="70.50" routeLength="379.43" waitingTime="20.50" waitingCount="2" stopTime="0.00" timeLoss="40.33" rerouteNo="0" devices="tripinfo_NW_21" vType="cars" speedFactor="1.07" vaporized=""/>
    <tripinfo id="SN_22" depart="75.00" departLane="3_1_2" departPos="5.10" departSpeed="0.00" departDelay="0.00" arrival="140.00" arrivalLane="1_5_1" arrivalPos="186.40" arrivalSpeed="12.86" duration="65.00" routeLength="395.15" waitingTime="14.00" waitingCount="1" stopTime="0.00" timeLoss="34.55" rerouteNo="0" devices="tripinfo_SN_22" vType="cars" speedFactor="0.86" vaporized=""/>
    <tripinfo id="SN_25" depart="84.00" departLane="3_1_2" departPos="5.10" departSpeed="0.00" departDelay="0.00" arrival="142.00" arrivalLane="1_5_2" arrivalPos="186.40" arrivalSpeed="11.50" duration="58.00" routeLength="395.15" waitingTime="9.50" waitingCount="1" stopTime="0.00" timeLoss="27.36" rerouteNo="0" devices="tripinfo_SN_25" vType="cars" speedFactor="1.06" vaporized=""/>
    <tripinfo id="SN_31" depart="99.00" departLane="3_1_2" departPos="5.10" departSpeed="0.00" departDelay="0.00" arrival="143.50" arrivalLane="1_5_1" arrivalPos="186.40" arrivalSpeed="12.27" duration="44.50" routeLength="395.15" waitingTime="0.00" waitingCount="0" stopTime="0.00" timeLoss="14.05" rerouteNo="0" devices="tripinfo_SN_31" vType="cars" speedFactor="0.98" vaporized=""/>
    <tripinfo id="SE_13" depart="36.00" departLane="3_1_1" departPos="5.10" departSpeed="0.00" departDelay="0.00" arrival="148.00" arrivalLane="1_4_1" arrivalPos="186.40" arrivalSpeed="12.76" duration="112.00" routeLength="379.42" waitingTime="63.00" waitingCount="2" stopTime="0.00" timeLoss="82.02" rerouteNo="0" devices="tripinfo_SE_13" vType="cars" speedFactor="1.13" vaporized=""/>
    <tripinfo id="SN_18" depart="50.00" departLane="3_1_2" departPos="5.10" departSpeed="0.00" departDelay="0.00" arrival="148.00" arrivalLane="1_5_2" arrivalPos="186.40" arrivalSpeed="12.21" duration="98.00" routeLength="395.15" waitingTime="42.00" waitingCount="2" stopTime="0.00" timeLoss="67.19" rerouteNo="0" devices="tripinfo_SN_18" vType="cars" speedFactor="0.99" vaporized=""/>
    <tripinfo id="SN_26" depart="86.50" departLane="3_1_2" departPos="5.10" departSpeed="0.00" departDelay="1.50" arrival="149.50" arrivalLane="1_5_2" arrivalPos="186.40" arrivalSpeed="11.67" duration="63.00" routeLength="395.15" waitingTime="2.00" waitingCount="1" stopTime="0.00" timeLoss="32.56" rerouteNo="0" devices="tripinfo_SN_26" vType="cars" speedFactor="0.93" vaporized=""/>
    <tripinfo id="SE_15" depart="39.00" departLane="3_1_1" departPos="5.10" departSpeed="0.00" departDelay="0.00" arrival="163.50" arrivalLane="1_4_1" arrivalPos="186.40" arrivalSpeed="12.54" duration="124.50" routeLength="379.42" waitingTime="69.00" waitingCount="3" stopTime="0.00" timeLoss="94.19" rerouteNo="0" devices="tripinfo_SE_15" vType="cars" speedFactor="0.99" vaporized=""/>
    <tripinfo id="SE_24" depart="83.00" departLane="3_1_1" departPos="5.10" departSpeed="0.00" departDelay="0.00" arrival="165.50" arrivalLane="1_4_1" arrivalPos="186.40" arrivalSpeed="11.64" duration="82.50" routeLength="379.42" waitingTime="16.50" waitingCount="3" stopTime="0.00" timeLoss="52.38" rerouteNo="0" devices="tripinfo_SE_24" vType="cars" speedFactor="1.03" vaporized=""/>
    <tripinfo id="NE_30" depart="92.00" departLane="5_1_3" departPos="5.10" departSpeed="0.00" departDelay="0.00" arrival="165.50" arrivalLane="1_4_2" arrivalPos="186.40" arrivalSpeed="11.76" duration="73.50" routeLength="392.22" waitingTime="33.00" waitingCount="1" stopTime="0.00" timeLoss="42.49" rerouteNo="0" devices="tripinfo_NE_30" vType="cars" speedFactor="0.97" vaporized=""/>
    <tripinfo id="SW_35" depart="123.00" departLane="3_1_3" departPos="5.10" departSpeed="0.00" departDelay="0.00" arrival="165.50" arrivalLane="1_2_2" arrivalPos="186.40" arrivalSpeed="11.70" duration="42.50" routeLength="392.22" waitingTime="0.50" waitingCount="1" stopTime="0.00" timeLoss="11.70" rerouteNo="0" devices="tripinfo_SW_35" vType="cars" speedFactor="0.95" vaporized=""/>
    <tripinfo id="NE_39" depart="135.00" departLane="5_1_3" departPos="5.10" departSpeed="0.00" departDelay="0.00" arrival="172.50" arrivalLane="1_4_2" arrivalPos="186.40" arrivalSpeed="12.58" duration="37.50" routeLength="392.22" waitingTime="0.00" waitingCount="0" stopTime="0.00" timeLoss="6.12" rerouteNo="0" devices="tripinfo_NE_39" vType="cars" speedFactor="0.93" vaporized=""/>
    <personinfo id="person_WE_s.0" depart="1.92" type="DEFAULT_PEDTYPE" speedFactor="0.98" duration="173.00" waitingTime="0.00" timeLoss="9.71" traveltime="173.00">
        <walk depart="2.00" departPos="100.00" arrival="175.00" arrivalPos="93.20" duration="173.00" routeLength="221.17" timeLoss="9.71" maxSpeed="1.35"/>
    </personinfo>
    <tripinfo id="EW_5" depart="129.00" departLane="4_1_2" departPos="5.10" departSpeed="0.00" departDelay="0.00" arrival="181.50" arrivalLane="1_2_2" arrivalPos="186.40" arrivalSpeed="11.83" duration="52.50" routeLength="395.15" waitingTime="12.50" waitingCount="1" stopTime="0.00" timeLoss="22.09" rerouteNo="0" devices="tripinfo_EW_5" vType="cars" speedFactor="1.06" vaporized=""/>
    <tripinfo id="EW_4" depart="124.00" departLane="4_1_2" departPos="5.10" departSpeed="0.00" departDelay="0.00" arrival="182.00" arrivalLane="1_2_1" arrivalPos="186.40" arrivalSpeed="12.46" duration="58.00" routeLength="395.15" waitingTime="18.00" waitingCount="1" stopTime="0.00" timeLoss="27.58" rerouteNo="0" devices="tripinfo_EW_4" vType="cars" speedFactor="0.93" vaporized=""/>
    <tripinfo id="WE_7" depart="67.00" departLane="2_1_2" departPos="5.10" departSpeed="0.00" departDelay="0.00" arrival="183.50" arrivalLane="1_4_1" arrivalPos="186.40" arrivalSpeed="12.20" duration="116.50" routeLength="395.15" waitingTime="74.00" waitingCount="1" stopTime="0.00" timeLoss="85.73" rerouteNo="0" devices="tripinfo_WE_7" vType="cars" speedFactor="0.93" vaporized=""/>
    <tripinfo id="WE_8" depart="78.00" departLane="2_1_2" departPos="5.10" departSpeed="0.00" departDelay="0.00" arrival="183.50" arrivalLane="1_4_2" arrivalPos="186.40" arrivalSpeed="12.05" duration="105.50" routeLength="395.15" waitingTime="62.50" waitingCount="1" stopTime="0.00" timeLoss="74.83" rerouteNo="0" devices="tripinfo_WE_8" vType="cars" speedFactor="0.86" vaporized=""/>
    <tripinfo id="EW_6" depart="145.00" departLane="4_1_2" departPos="5.10" departSpeed="0.00" departDelay="0.00" arrival="183.50" arrivalLane="1_2_2" arrivalPos="186.40" arrivalSpeed="12.80" duration="38.50" routeLength="395.15" waitingTime="0.00" waitingCount="0" stopTime="0.00" timeLoss="8.00" rerouteNo="0" devices="tripinfo_EW_6" vType="cars" speedFactor="0.99" vaporized=""/>
    <personinfo id="person_SW_diag.0" depart="13.61" type="DEFAULT_PEDTYPE" speedFactor="1.17" duration="170.00" waitingTime="0.00" timeLoss="32.16" traveltime="170.00">
        <walk depart="14.00" departPos="100.00" arrival="184.00" arrivalPos="93.20" duration="170.00" routeLength="223.30" timeLoss="32.16" maxSpeed="1.62"/>
    </personinfo>
    <personinfo id="person_ES_diag.0" depart="6.72" type="DEFAULT_PEDTYPE" speedFactor="1.22" duration="177.00" waitingTime="0.00" timeLoss="39.69" traveltime="177.00">
        <walk depart="7.00" departPos="100.00" arrival="184.00" arrivalPos="93.20" duration="177.00" routeLength="233.56" timeLoss="39.69" maxSpeed="1.70"/>
    </personinfo>
    <tripinfo id="EW_7" depart="148.50" departLane="4_1_2" departPos="5.10" departSpeed="0.00" departDelay="2.50" arrival="185.00" arrivalLane="1_2_1" arrivalPos="186.40" arrivalSpeed="11.98" duration="36.50" routeLength="395.15" waitingTime="0.00" waitingCount="0" stopTime="0.00" timeLoss="6.09" rerouteNo="0" devices="tripinfo_EW_7" vType="cars" speedFactor="1.05" vaporized=""/>
    <tripinfo id="WE_9" depart="109.00" departLane="2_1_2" departPos="5.10" departSpeed="0.00" departDelay="0.00" arrival="186.00" arrivalLane="1_4_2" arrivalPos="186.40" arrivalSpeed="11.77" duration="77.00" routeLength="395.15" waitingTime="30.50" waitingCount="1" stopTime="0.00" timeLoss="46.36" rerouteNo="0" devices="tripinfo_WE_9" vType="cars" speedFactor="0.95" vaporized=""/>
    <tripinfo id="WE_11" depart="120.50" departLane="2_1_2" departPos="5.10" departSpeed="0.00" departDelay="2.50" arrival="188.00" arrivalLane="1_4_1" arrivalPos="186.40" arrivalSpeed="12.53" duration="67.50" routeLength="395.15" waitingTime="20.00" waitingCount="1" stopTime="0.00" timeLoss="36.94" rerouteNo="0" devices="tripinfo_WE_11" vType="cars" speedFactor="1.07" vaporized=""/>
    <personinfo id="person_SN_e.0" depart="18.06" type="DEFAULT_PEDTYPE" speedFactor="1.15" duration="170.50" waitingTime="0.00" timeLoss="31.82" traveltime="170.50">
        <walk depart="18.50" departPos="100.00" arrival="189.00" arrivalPos="93.20" duration="170.50" routeLength="221.24" timeLoss="31.82" maxSpeed="1.60"/>
    </personinfo>
    <personinfo id="person_NS_w.3" depart="26.46" type="DEFAULT_PEDTYPE" speedFactor="1.15" duration="163.00" waitingTime="0.00" timeLoss="24.22" traveltime="163.00">
        <walk depart="26.50" departPos="100.00" arrival="189.50" arrivalPos="93.20" duration="163.00" routeLength="221.25" timeLoss="24.22" maxSpeed="1.59"/>
    </personinfo>
    <tripinfo id="WE_10" depart="117.00" departLane="2_1_2" departPos="5.10" departSpeed="0.00" departDelay="0.00" arrival="190.00" arrivalLane="1_4_2" arrivalPos="186.40" arrivalSpeed="12.63" duration="73.00" routeLength="395.15" waitingTime="19.50" waitingCount="1" stopTime="0.00" timeLoss="42.26" rerouteNo="0" devices="tripinfo_WE_10" vType="cars" speedFactor="0.92" vaporized=""/>
    <personinfo id="person_NS_w.0" depart="2.40" type="DEFAULT_PEDTYPE" speedFactor="1.12" duration="188.50" waitingTime="0.00" timeLoss="46.33" traveltime="188.50">
        <walk depart="2.50" departPos="100.00" arrival="191.00" arrivalPos="93.20" duration="188.50" routeLength="221.25" timeLoss="46.33" maxSpeed="1.56"/>
    </personinfo>
    <tripinfo id="WE_13" depart="126.50" departLane="2_1_2" departPos="5.10" departSpeed="0.00" departDelay="6.50" arrival="191.50" arrivalLane="1_4_2" arrivalPos="186.40" arrivalSpeed="12.03" duration="65.00" routeLength="395.15" waitingTime="16.00" waitingCount="1" stopTime="0.00" timeLoss="34.47" rerouteNo="0" devices="tripinfo_WE_13" vType="cars" speedFactor="1.00" vaporized=""/>
    <tripinfo id="WE_14" depart="130.00" departLane="2_1_2" departPos="5.10" departSpeed="0.00" departDelay="7.00" arrival="193.00" arrivalLane="1_4_1" arrivalPos="186.40" arrivalSpeed="12.18" duration="63.00" routeLength="395.15" waitingTime="14.50" waitingCount="1" stopTime="0.00" timeLoss="32.53" rerouteNo="0" devices="tripinfo_WE_14" vType="cars" speedFactor="1.09" vaporized=""/>
    <personinfo id="person_WN_diag.0" depart="12.22" type="DEFAULT_PEDTYPE" speedFactor="1.07" duration="182.00" waitingTime="0.00" timeLoss="24.84" traveltime="182.00">
        <walk depart="12.50" departPos="100.00" arrival="194.50" arrivalPos="93.20" duration="182.00" routeLength="233.56" timeLoss="24.84" maxSpeed="1.49"/>
    </personinfo>
    <tripinfo id="WE_16" depart="136.50" departLane="2_1_2" departPos="5.10" departSpeed="0.00" departDelay="3.50" arrival="195.00" arrivalLane="1_4_2" arrivalPos="186.40" arrivalSpeed="12.74" duration="58.50" routeLength="395.15" waitingTime="9.50" waitingCount="1" stopTime="0.00" timeLoss="27.79" rerouteNo="0" devices="tripinfo_WE_16" vType="cars" speedFactor="1.06" vaporized=""/>
    <tripinfo id="EW_8" depart="160.00" departLane="4_1_2" departPos="5.10" departSpeed="0.00" departDelay="0.00" arrival="196.00" arrivalLane="1_2_2" arrivalPos="186.40" arrivalSpeed="12.25" duration="36.00" routeLength="395.15" waitingTime="0.00" waitingCount="0" stopTime="0.00" timeLoss="5.39" rerouteNo="0" devices="tripinfo_EW_8" vType="cars" speedFactor="1.06" vaporized=""/>
    <tripinfo id="WE_17" depart="139.50" departLane="2_1_2" departPos="5.10" departSpeed="0.00" departDelay="5.50" arrival="197.00" arrivalLane="1_4_1" arrivalPos="186.40" arrivalSpeed="12.80" duration="57.50" routeLength="395.15" waitingTime="8.00" waitingCount="1" stopTime="0.00" timeLoss="26.87" rerouteNo="0" devices="tripinfo_WE_17" vType="cars" speedFactor="1.05" vaporized=""/>
    <tripinfo id="EN_44" depart="156.00" departLane="4_1_1" departPos="5.10" departSpeed="0.00" departDelay="0.00" arrival="197.50" arrivalLane="1_5_1" arrivalPos="186.40" arrivalSpeed="11.64" duration="41.50" routeLength="379.42" waitingTime="3.50" waitingCount="1" stopTime="0.00" timeLoss="11.34" rerouteNo="0" devices="tripinfo_EN_44" vType="cars" speedFactor="0.94" vaporized=""/>
    <personinfo id="person_NE_diag.0" depart="4.77" type="DEFAULT_PEDTYPE" speedFactor="1.01" duration="193.00" waitingTime="0.00" timeLoss="33.12" traveltime="193.00">
        <walk depart="5.00" departPos="100.00" arrival="198.00" arrivalPos="93.20" duration="193.00" routeLength="223.30" timeLoss="33.12" maxSpeed="1.40"/>
    </personinfo>
    <tripinfo id="WE_20" depart="152.50" departLane="2_1_2" departPos="5.10" departSpeed="0.00" departDelay="1.50" arrival="199.50" arrivalLane="1_4_2" arrivalPos="186.40" arrivalSpeed="12.60" duration="47.00" routeLength="395.15" waitingTime="0.00" waitingCount="0" stopTime="0.00" timeLoss="16.34" rerouteNo="0" devices="tripinfo_WE_20" vType="cars" speedFactor="0.92" vaporized=""/>
    <tripinfo id="WS_23" depart="79.00" departLane="2_1_1" departPos="5.10" departSpeed="0.00" departDelay="0.00" arrival="200.50" arrivalLane="1_3_1" arrivalPos="186.40" arrivalSpeed="12.56" duration="121.50" routeLength="379.43" waitingTime="73.50" waitingCount="2" stopTime="0.00" timeLoss="91.73" rerouteNo="0" devices="tripinfo_WS_23" vType="cars" speedFactor="1.24" vaporized=""/>
    <personinfo id="person_SN_e.2" depart="39.42" type="DEFAULT_PEDTYPE" speedFactor="1.04" duration="161.50" waitingTime="0.00" timeLoss="8.68" traveltime="161.50">
        <walk depart="39.50" departPos="100.00" arrival="201.00" arrivalPos="93.20" duration="161.50" routeLength="221.24" timeLoss="8.68" maxSpeed="1.45"/>
    </personinfo>
    <personinfo id="person_NS_w.1" depart="20.11" type="DEFAULT_PEDTYPE" speedFactor="1.00" duration="181.00" waitingTime="0.00" timeLoss="21.40" traveltime="181.00">
        <walk depart="20.50" departPos="100.00" arrival="201.50" arrivalPos="93.20" duration="181.00" routeLength="221.25" timeLoss="21.40" maxSpeed="1.39"/>
    </personinfo>
    <tripinfo id="WE_19" depart="150.00" departLane="2_1_2" departPos="5.10" departSpeed="0.00" departDelay="0.00" arrival="202.00" arrivalLane="1_4_2" arrivalPos="186.40" arrivalSpeed="11.60" duration="52.00" routeLength="395.15" waitingTime="0.00" waitingCount="0" stopTime="0.00" timeLoss="21.24" rerouteNo="0" devices="tripinfo_WE_19" vType="cars" speedFactor="1.00" vaporized=""/>
    <tripinfo id="WS_28" depart="91.00" departLane="2_1_1" departPos="5.10" departSpeed="0.00" departDelay="0.00" arrival="203.50" arrivalLane="1_3_1" arrivalPos="186.40" arrivalSpeed="12.86" duration="112.50" routeLength="379.43" waitingTime="62.00" waitingCount="2" stopTime="0.00" timeLoss="82.24" rerouteNo="0" devices="tripinfo_WS_28" vType="cars" speedFactor="0.97" vaporized=""/>
    <tripinfo id="WE_12" depart="123.50" departLane="2_1_2" departPos="5.10" departSpeed="0.00" departDelay="4.50" arrival="207.00" arrivalLane="1_4_2" arrivalPos="186.40" arrivalSpeed="11.98" duration="83.50" routeLength="395.15" waitingTime="27.00" waitingCount="3" stopTime="0.00" timeLoss="52.66" rerouteNo="0" devices="tripinfo_WE_12" vType="cars" speedFactor="1.12" vaporized=""/>
    <tripinfo id="WE_18" depart="142.50" departLane="2_1_2" departPos="5.10" departSpeed="0.00" departDelay="4.50" arrival="208.50" arrivalLane="1_4_2" arrivalPos="186.40" arrivalSpeed="11.59" duration="66.00" routeLength="395.15" waitingTime="6.50" waitingCount="2" stopTime="0.00" timeLoss="35.50" rerouteNo="0" devices="tripinfo_WE_18" vType="cars" speedFactor="0.87" vaporized=""/>
    <personinfo id="person_NS_w.2" depart="24.53" type="DEFAULT_PEDTYPE" speedFactor="0.92" duration="185.00" waitingTime="0.00" timeLoss="11.49" traveltime="185.00">
        <walk depart="25.00" departPos="100.00" arrival="210.00" arrivalPos="93.20" duration="185.00" routeLength="221.25" timeLoss="11.49" maxSpeed="1.28"/>
    </personinfo>