<?xml version="1.0" encoding="UTF-8"?>

<!-- generated on 2025-03-12 13:23:32 by Eclipse SUMO GUI Version 1.20.0
<configuration xmlns:xsi="http://www.w3.org/2001/XMLSchema-instance" xsi:noNamespaceSchemaLocation="http://sumo.dlr.de/xsd/sumoConfiguration.xsd">

    <input>
        <net-file value="/home/naderian/Desktop/Shakiba/MMSVCC/environment/network_model/single_intersection_pedestrian_X.net.xml"/>
        <route-files value="/home/naderian/Desktop/Shakiba/MMSVCC/environment/network_model/single_intersection.rou.xml"/>
        <additional-files value="/home/naderian/Desktop/Shakiba/MMSVCC/environment/network_model/single_intersection.add_actuated.xml"/>
    </input>

    <output>
        <queue-output value="/home/naderian/Desktop/Shakiba/MMSVCC/environment/simulation_data/single_intersection/queues_actuated_symmetric_pene_50.xml"/>
        <tripinfo-output value="/home/naderian/Desktop/Shakiba/MMSVCC/environment/simulation_data/single_intersection/tripinfo_actuated_symmetric_pene_50.xml"/>
    </output>

    <time>
        <begin value="0"/>
        <step-length value="0.5"/>
    </time>

    <processing>
        <waiting-time-memory value="1000"/>
    </processing>

    <report>
        <verbose value="true"/>
        <no-step-log value="true"/>
    </report>

    <traci_server>
        <remote-port value="58195"/>
    </traci_server>

    <gui_only>
        <start value="true"/>
    </gui_only>

</configuration>
-->

<tripinfos xmlns:xsi="http://www.w3.org/2001/XMLSchema-instance" xsi:noNamespaceSchemaLocation="http://sumo.dlr.de/xsd/tripinfo_file.xsd">
    <tripinfo id="SN_0" depart="0.00" departLane="3_1_2" departPos="5.10" departSpeed="0.00" departDelay="0.00" arrival="35.50" arrivalLane="1_5_1" arrivalPos="186.40" arrivalSpeed="11.82" duration="35.50" routeLength="395.15" waitingTime="0.00" waitingCount="0" stopTime="0.00" timeLoss="4.99" rerouteNo="0" devices="tripinfo_SN_0" vType="cars" speedFactor="0.97" vaporized=""/>
    <tripinfo id="NS_1" depart="1.00" departLane="5_1_2" departPos="5.10" departSpeed="0.00" departDelay="0.00" arrival="38.00" arrivalLane="1_3_1" arrivalPos="186.40" arrivalSpeed="12.65" duration="37.00" routeLength="395.15" waitingTime="0.00" waitingCount="0" stopTime="0.00" timeLoss="6.30" rerouteNo="0" devices="tripinfo_NS_1" vType="cars" speedFactor="1.11" vaporized=""/>
    <tripinfo id="SN_2" depart="5.00" departLane="3_1_2" departPos="5.10" departSpeed="0.00" departDelay="0.00" arrival="40.00" arrivalLane="1_5_1" arrivalPos="186.40" arrivalSpeed="11.68" duration="35.00" routeLength="395.15" waitingTime="0.00" waitingCount="0" stopTime="0.00" timeLoss="4.48" rerouteNo="0" devices="tripinfo_SN_2" vType="cars" speedFactor="0.86" vaporized=""/>
    <tripinfo id="EW_0" depart="19.00" departLane="4_1_2" departPos="5.10" departSpeed="0.00" departDelay="0.00" arrival="80.50" arrivalLane="1_2_1" arrivalPos="186.40" arrivalSpeed="12.62" duration="61.50" routeLength="395.15" waitingTime="22.00" waitingCount="1" stopTime="0.00" timeLoss="31.02" rerouteNo="0" devices="tripinfo_EW_0" vType="cars" speedFactor="1.05" vaporized=""/>
    <tripinfo id="WE_1" depart="10.00" departLane="2_1_2" departPos="5.10" departSpeed="0.00" departDelay="0.00" arrival="81.00" arrivalLane="1_4_2" arrivalPos="186.40" arrivalSpeed="11.62" duration="71.00" routeLength="395.15" waitingTime="31.50" waitingCount="1" stopTime="0.00" timeLoss="40.52" rerouteNo="0" devices="tripinfo_WE_1" vType="cars" speedFactor="1.06" vaporized=""/>
    <tripinfo id="EW_1" depart="22.00" departLane="4_1_2" departPos="5.10" departSpeed="0.00" departDelay="1.00" arrival="81.00" arrivalLane="1_2_2" arrivalPos="186.40" arrivalSpeed="12.59" duration="59.00" routeLength="395.15" waitingTime="18.00" waitingCount="1" stopTime="0.00" timeLoss="28.45" rerouteNo="0" devices="tripinfo_EW_1" vType="cars" speedFactor="1.01" vaporized=""/>
    <tripinfo id="WE_0" depart="1.00" departLane="2_1_2" departPos="5.10" departSpeed="0.00" departDelay="0.00" arrival="82.00" arrivalLane="1_4_1" arrivalPos="186.40" arrivalSpeed="11.92" duration="81.00" routeLength="395.15" waitingTime="39.50" waitingCount="1" stopTime="0.00" timeLoss="50.61" rerouteNo="0" devices="tripinfo_WE_0" vType="cars" speedFactor="0.91" vaporized=""/>
    <tripinfo id="EW_2" depart="46.00" departLane="4_1_2" departPos="5.10" departSpeed="0.00" departDelay="0.00" arrival="83.00" arrivalLane="1_2_1" arrivalPos="186.40" arrivalSpeed="12.90" duration="37.00" routeLength="395.15" waitingTime="0.00" waitingCount="0" stopTime="0.00" timeLoss="6.33" rerouteNo="0" devices="tripinfo_EW_2" vType="cars" speedFactor="1.05" vaporized=""/>
    <tripinfo id="WS_3" depart="7.00" departLane="2_1_1" departPos="5.10" departSpeed="0.00" departDelay="0.00" arrival="83.50" arrivalLane="1_3_1" arrivalPos="186.40" arrivalSpeed="12.74" duration="76.50" routeLength="379.43" waitingTime="31.50" waitingCount="1" stopTime="0.00" timeLoss="46.23" rerouteNo="0" devices="tripinfo_WS_3" vType="cars" speedFactor="0.95" vaporized=""/>
    <tripinfo id="WE_2" depart="12.50" departLane="2_1_2" departPos="5.10" departSpeed="0.00" departDelay="0.50" arrival="83.50" arrivalLane="1_4_2" arrivalPos="186.40" arrivalSpeed="11.58" duration="71.00" routeLength="395.15" waitingTime="26.50" waitingCount="1" stopTime="0.00" timeLoss="40.41" rerouteNo="0" devices="tripinfo_WE_2" vType="cars" speedFactor="0.94" vaporized=""/>
    <tripinfo id="WE_3" depart="43.00" departLane="2_1_2" departPos="5.10" departSpeed="0.00" departDelay="0.00" arrival="86.50" arrivalLane="1_4_1" arrivalPos="186.40" arrivalSpeed="11.88" duration="43.50" routeLength="395.15" waitingTime="0.00" waitingCount="0" stopTime="0.00" timeLoss="13.05" rerouteNo="0" devices="tripinfo_WE_3" vType="cars" speedFactor="1.05" vaporized=""/>
    <tripinfo id="ES_4" depart="14.00" departLane="4_1_3" departPos="5.10" departSpeed="0.00" departDelay="0.00" arrival="110.00" arrivalLane="1_3_2" arrivalPos="186.40" arrivalSpeed="11.79" duration="96.00" routeLength="392.22" waitingTime="53.50" waitingCount="1" stopTime="0.00" timeLoss="65.30" rerouteNo="0" devices="tripinfo_ES_4" vType="cars" speedFactor="0.97" vaporized=""/>
    <tripinfo id="ES_6" depart="31.00" departLane="4_1_3" departPos="5.10" departSpeed="0.00" departDelay="0.00" arrival="112.00" arrivalLane="1_3_2" arrivalPos="186.40" arrivalSpeed="12.96" duration="81.00" routeLength="392.22" waitingTime="35.00" waitingCount="1" stopTime="0.00" timeLoss="50.24" rerouteNo="0" devices="tripinfo_ES_6" vType="cars" speedFactor="1.07" vaporized=""/>
    <tripinfo id="SN_10" depart="48.00" departLane="3_1_2" departPos="5.10" departSpeed="0.00" departDelay="0.00" arrival="125.00" arrivalLane="1_5_1" arrivalPos="186.40" arrivalSpeed="12.50" duration="77.00" routeLength="395.15" waitingTime="36.50" waitingCount="1" stopTime="0.00" timeLoss="46.57" rerouteNo="0" devices="tripinfo_SN_10" vType="cars" speedFactor="1.02" vaporized=""/>
    <tripinfo id="NS_12" depart="80.00" departLane="5_1_2" departPos="5.10" departSpeed="0.00" departDelay="0.00" arrival="125.50" arrivalLane="1_3_2" arrivalPos="186.40" arrivalSpeed="12.30" duration="45.50" routeLength="395.15" waitingTime="4.00" waitingCount="1" stopTime="0.00" timeLoss="15.03" rerouteNo="0" devices="tripinfo_NS_12" vType="cars" speedFactor="1.07" vaporized=""/>
    <tripinfo id="NS_5" depart="22.00" departLane="5_1_2" departPos="5.10" departSpeed="0.00" departDelay="0.00" arrival="126.00" arrivalLane="1_3_1" arrivalPos="186.40" arrivalSpeed="12.36" duration="104.00" routeLength="395.15" waitingTime="62.00" waitingCount="1" stopTime="0.00" timeLoss="73.34" rerouteNo="0" devices="tripinfo_NS_5" vType="cars" speedFactor="1.01" vaporized=""/>
    <tripinfo id="SN_11" depart="70.00" departLane="3_1_2" departPos="5.10" departSpeed="0.00" departDelay="0.00" arrival="126.00" arrivalLane="1_5_1" arrivalPos="186.40" arrivalSpeed="12.19" duration="56.00" routeLength="395.15" waitingTime="15.50" waitingCount="1" stopTime="0.00" timeLoss="25.41" rerouteNo="0" devices="tripinfo_SN_11" vType="cars" speedFactor="1.02" vaporized=""/>
    <tripinfo id="NW_7" depart="37.00" departLane="5_1_1" departPos="5.10" departSpeed="0.00" departDelay="0.00" arrival="126.50" arrivalLane="1_2_1" arrivalPos="186.40" arrivalSpeed="12.96" duration="89.50" routeLength="379.43" waitingTime="46.50" waitingCount="1" stopTime="0.00" timeLoss="59.69" rerouteNo="0" devices="tripinfo_NW_7" vType="cars" speedFactor="1.13" vaporized=""/>
    <tripinfo id="SN_14" depart="90.00" departLane="3_1_2" departPos="5.10" departSpeed="0.00" departDelay="0.00" arrival="128.00" arrivalLane="1_5_1" arrivalPos="186.40" arrivalSpeed="12.60" duration="38.00" routeLength="395.15" waitingTime="0.00" waitingCount="0" stopTime="0.00" timeLoss="7.26" rerouteNo="0" devices="tripinfo_SN_14" vType="cars" speedFactor="1.05" vaporized=""/>
    <tripinfo id="NS_15" depart="92.00" departLane="5_1_2" departPos="5.10" departSpeed="0.00" departDelay="0.00" arrival="129.00" arrivalLane="1_3_1" arrivalPos="186.40" arrivalSpeed="12.64" duration="37.00" routeLength="395.15" waitingTime="0.00" waitingCount="0" stopTime="0.00" timeLoss="6.57" rerouteNo="0" devices="tripinfo_NS_15" vType="cars" speedFactor="1.01" vaporized=""/>
    <tripinfo id="SN_16" depart="93.00" departLane="3_1_2" departPos="5.10" departSpeed="0.00" departDelay="0.00" arrival="130.00" arrivalLane="1_5_1" arrivalPos="186.40" arrivalSpeed="12.32" duration="37.00" routeLength="395.15" waitingTime="0.00" waitingCount="0" stopTime="0.00" timeLoss="6.53" rerouteNo="0" devices="tripinfo_SN_16" vType="cars" speedFactor="0.91" vaporized=""/>
    <tripinfo id="NS_18" depart="99.00" departLane="5_1_2" departPos="5.10" departSpeed="0.00" departDelay="0.00" arrival="136.50" arrivalLane="1_3_2" arrivalPos="186.40" arrivalSpeed="12.38" duration="37.50" routeLength="395.15" waitingTime="0.00" waitingCount="0" stopTime="0.00" timeLoss="6.67" rerouteNo="0" devices="tripinfo_NS_18" vType="cars" speedFactor="0.84" vaporized=""/>
    <tripinfo id="NW_9" depart="41.00" departLane="5_1_1" departPos="5.10" departSpeed="0.00" departDelay="0.00" arrival="141.50" arrivalLane="1_2_1" arrivalPos="186.40" arrivalSpeed="12.43" duration="100.50" routeLength="379.43" waitingTime="53.00" waitingCount="2" stopTime="0.00" timeLoss="70.00" rerouteNo="0" devices="tripinfo_NW_9" vType="cars" speedFactor="0.91" vaporized=""/>
    <tripinfo id="SE_19" depart="100.00" departLane="3_1_1" departPos="5.10" departSpeed="0.00" departDelay="0.00" arrival="143.00" arrivalLane="1_4_1" arrivalPos="186.40" arrivalSpeed="12.62" duration="43.00" routeLength="379.42" waitingTime="3.00" waitingCount="1" stopTime="0.00" timeLoss="12.84" rerouteNo="0" devices="tripinfo_SE_19" vType="cars" speedFactor="0.92" vaporized=""/>
    <tripinfo id="SN_20" depart="109.00" departLane="3_1_2" departPos="5.10" departSpeed="0.00" departDelay="0.00" arrival="145.00" arrivalLane="1_5_2" arrivalPos="186.40" arrivalSpeed="12.49" duration="36.00" routeLength="395.15" waitingTime="0.00" waitingCount="0" stopTime="0.00" timeLoss="5.53" rerouteNo="0" devices="tripinfo_SN_20" vType="cars" speedFactor="0.89" vaporized=""/>
    <tripinfo id="SW_8" depart="40.00" departLane="3_1_3" departPos="5.10" departSpeed="0.00" departDelay="0.00" arrival="156.50" arrivalLane="1_2_2" arrivalPos="186.40" arrivalSpeed="12.17" duration="116.50" routeLength="392.22" waitingTime="73.50" waitingCount="1" stopTime="0.00" timeLoss="85.32" rerouteNo="0" devices="tripinfo_SW_8" vType="cars" speedFactor="0.85" vaporized=""/>
    <tripinfo id="SW_17" depart="93.00" departLane="3_1_3" departPos="5.10" departSpeed="0.00" departDelay="0.00" arrival="159.00" arrivalLane="1_2_2" arrivalPos="186.40" arrivalSpeed="12.64" duration="66.00" routeLength="392.22" waitingTime="19.00" waitingCount="1" stopTime="0.00" timeLoss="34.70" rerouteNo="0" devices="tripinfo_SW_17" vType="cars" speedFactor="0.83" vaporized=""/>
    <tripinfo id="WE_5" depart="86.00" departLane="2_1_2" departPos="5.10" departSpeed="0.00" departDelay="0.00" arrival="172.50" arrivalLane="1_4_2" arrivalPos="186.40" arrivalSpeed="11.81" duration="86.50" routeLength="395.15" waitingTime="45.50" waitingCount="1" stopTime="0.00" timeLoss="55.96" rerouteNo="0" devices="tripinfo_WE_5" vType="cars" speedFactor="0.99" vaporized=""/>
    <tripinfo id="WE_4" depart="67.00" departLane="2_1_2" departPos="5.10" departSpeed="0.00" departDelay="0.00" arrival="173.00" arrivalLane="1_4_1" arrivalPos="186.40" arrivalSpeed="12.43" duration="106.00" routeLength="395.15" waitingTime="64.50" waitingCount="1" stopTime="0.00" timeLoss="75.24" rerouteNo="0" devices="tripinfo_WE_4" vType="cars" speedFactor="0.96" vaporized=""/>
    <tripinfo id="EW_3" depart="68.00" departLane="4_1_2" departPos="5.10" departSpeed="0.00" departDelay="0.00" arrival="173.00" arrivalLane="1_2_1" arrivalPos="186.40" arrivalSpeed="11.59" duration="105.00" routeLength="395.15" waitingTime="63.50" waitingCount="1" stopTime="0.00" timeLoss="74.45" rerouteNo="0" devices="tripinfo_EW_3" vType="cars" speedFactor="0.98" vaporized=""/>
    <tripinfo id="EW_4" depart="123.00" departLane="4_1_2" departPos="5.10" departSpeed="0.00" departDelay="0.00" arrival="173.50" arrivalLane="1_2_2" arrivalPos="186.40" arrivalSpeed="11.72" duration="50.50" routeLength="395.15" waitingTime="8.00" waitingCount="1" stopTime="0.00" timeLoss="19.85" rerouteNo="0" devices="tripinfo_EW_4" vType="cars" speedFactor="1.11" vaporized=""/>
    <tripinfo id="WE_6" depart="89.00" departLane="2_1_2" departPos="5.10" departSpeed="0.00" departDelay="2.00" arrival="175.50" arrivalLane="1_4_1" arrivalPos="186.40" arrivalSpeed="12.03" duration="86.50" routeLength="395.15" waitingTime="42.50" waitingCount="1" stopTime="0.00" timeLoss="55.75" rerouteNo="0" devices="tripinfo_WE_6" vType="cars" speedFactor="0.93" vaporized=""/>
    <tripinfo id="EW_5" depart="126.00" departLane="4_1_2" departPos="5.10" departSpeed="0.00" departDelay="1.00" arrival="175.50" arrivalLane="1_2_2" arrivalPos="186.40" arrivalSpeed="11.81" duration="49.50" routeLength="395.15" waitingTime="2.50" waitingCount="1" stopTime="0.00" timeLoss="18.93" rerouteNo="0" devices="tripinfo_EW_5" vType="cars" speedFactor="1.09" vaporized=""/>
    <personinfo id="person_WE_s.0" depart="1.92" type="DEFAULT_PEDTYPE" speedFactor="0.98" duration="174.00" waitingTime="0.00" timeLoss="10.71" traveltime="174.00">
        <walk depart="2.00" departPos="100.00" arrival="176.00" arrivalPos="93.20" duration="174.00" routeLength="221.17" timeLoss="10.71" maxSpeed="1.35"/>
    </personinfo>
    <tripinfo id="WE_7" depart="125.00" departLane="2_1_2" departPos="5.10" departSpeed="0.00" departDelay="0.00" arrival="177.50" arrivalLane="1_4_2" arrivalPos="186.40" arrivalSpeed="12.44" duration="52.50" routeLength="395.15" waitingTime="5.50" waitingCount="1" stopTime="0.00" timeLoss="22.01" rerouteNo="0" devices="tripinfo_WE_7" vType="cars" speedFactor="1.02" vaporized=""/>
    <tripinfo id="EW_6" depart="137.00" departLane="4_1_2" departPos="5.10" departSpeed="0.00" departDelay="0.00" arrival="177.50" arrivalLane="1_2_1" arrivalPos="186.40" arrivalSpeed="11.84" duration="40.50" routeLength="395.15" waitingTime="0.00" waitingCount="0" stopTime="0.00" timeLoss="9.71" rerouteNo="0" devices="tripinfo_EW_6" vType="cars" speedFactor="1.08" vaporized=""/>
    <tripinfo id="WE_8" depart="134.00" departLane="2_1_2" departPos="5.10" departSpeed="0.00" departDelay="0.00" arrival="180.50" arrivalLane="1_4_2" arrivalPos="186.40" arrivalSpeed="11.79" duration="46.50" routeLength="395.15" waitingTime="0.00" waitingCount="0" stopTime="0.00" timeLoss="15.77" rerouteNo="0" devices="tripinfo_WE_8" vType="cars" speedFactor="1.01" vaporized=""/>
    <personinfo id="person_NS_w.1" depart="10.87" type="DEFAULT_PEDTYPE" speedFactor="1.12" duration="177.00" waitingTime="0.00" timeLoss="34.68" traveltime="177.00">
        <walk depart="11.00" departPos="100.00" arrival="188.00" arrivalPos="93.20" duration="177.00" routeLength="221.25" timeLoss="34.68" maxSpeed="1.55"/>
    </personinfo>
    <tripinfo id="WS_23" depart="125.00" departLane="2_1_1" departPos="5.10" departSpeed="0.00" departDelay="0.00" arrival="188.50" arrivalLane="1_3_1" arrivalPos="186.40" arrivalSpeed="12.74" duration="63.50" routeLength="379.43" waitingTime="16.00" waitingCount="2" stopTime="0.00" timeLoss="33.45" rerouteNo="0" devices="tripinfo_WS_23" vType="cars" speedFactor="1.02" vaporized=""/>
    <tripinfo id="EN_21" depart="111.00" departLane="4_1_1" departPos="5.10" departSpeed="0.00" departDelay="0.00" arrival="191.50" arrivalLane="1_5_1" arrivalPos="186.40" arrivalSpeed="12.65" duration="80.50" routeLength="379.42" waitingTime="34.50" waitingCount="3" stopTime="0.00" timeLoss="50.14" rerouteNo="0" devices="tripinfo_EN_21" vType="cars" speedFactor="1.00" vaporized=""/>
    <tripinfo id="EN_29" depart="137.00" departLane="4_1_1" departPos="5.10" departSpeed="0.00" departDelay="0.00" arrival="193.50" arrivalLane="1_5_1" arrivalPos="186.40" arrivalSpeed="11.78" duration="56.50" routeLength="379.42" waitingTime="11.50" waitingCount="1" stopTime="0.00" timeLoss="26.50" rerouteNo="0" devices="tripinfo_EN_29" vType="cars" speedFactor="1.15" vaporized=""/>
    <personinfo id="person_NE_diag.0" depart="4.87" type="DEFAULT_PEDTYPE" speedFactor="0.99" duration="189.50" waitingTime="0.00" timeLoss="26.63" traveltime="189.50">
        <walk depart="5.00" departPos="100.00" arrival="194.50" arrivalPos="93.20" duration="189.50" routeLength="223.30" timeLoss="26.63" maxSpeed="1.37"/>
    </personinfo>
    <personinfo id="person_NS_w.2" depart="10.90" type="DEFAULT_PEDTYPE" speedFactor="1.00" duration="187.00" waitingTime="0.00" timeLoss="27.37" traveltime="187.00">
        <walk depart="11.00" departPos="100.00" arrival="198.00" arrivalPos="93.20" duration="187.00" routeLength="221.25" timeLoss="27.37" maxSpeed="1.39"/>
    </personinfo>
    <personinfo id="person_NS_w.0" depart="3.48" type="DEFAULT_PEDTYPE" speedFactor="1.00" duration="195.00" waitingTime="0.00" timeLoss="35.22" traveltime="195.00">
        <walk depart="3.50" departPos="100.00" arrival="198.50" arrivalPos="93.20" duration="195.00" routeLength="221.25" timeLoss="35.22" maxSpeed="1.38"/>
    </personinfo>
    <personinfo id="person_NS_w.3" depart="12.93" type="DEFAULT_PEDTYPE" speedFactor="0.99" duration="187.00" waitingTime="0.00" timeLoss="25.61" traveltime="187.00">
        <walk depart="13.00" departPos="100.00" arrival="200.00" arrivalPos="93.20" duration="187.00" routeLength="221.25" timeLoss="25.61" maxSpeed="1.37"/>
    </personinfo>
    <tripinfo id="WN_13" depart="85.00" departLane="2_1_3" departPos="5.10" departSpeed="0.00" departDelay="0.00" arrival="200.00" arrivalLane="1_5_2" arrivalPos="186.40" arrivalSpeed="12.40" duration="115.00" routeLength="392.22" waitingTime="73.00" waitingCount="1" stopTime="0.00" timeLoss="84.00" rerouteNo="0" devices="tripinfo_WN_13" vType="cars" speedFactor="0.99" vaporized=""/>
    <tripinfo id="ES_22" depart="119.00" departLane="4_1_3" departPos="5.10" departSpeed="0.00" departDelay="0.00" arrival="201.00" arrivalLane="1_3_2" arrivalPos="186.40" arrivalSpeed="12.35" duration="82.00" routeLength="392.22" waitingTime="38.50" waitingCount="1" stopTime="0.00" timeLoss="51.01" rerouteNo="0" devices="tripinfo_ES_22" vType="cars" speedFactor="0.97" vaporized=""/>
    <personinfo id="person_SN_e.0" depart="16.32" type="DEFAULT_PEDTYPE" speedFactor="0.96" duration="185.00" waitingTime="0.00" timeLoss="19.33" traveltime="185.00">
        <walk depart="16.50" departPos="100.00" arrival="201.50" arrivalPos="93.20" duration="185.00" routeLength="221.24" timeLoss="19.33" maxSpeed="1.34"/>
    </personinfo>
    <tripinfo id="WN_36" depart="159.00" departLane="2_1_3" departPos="5.10" departSpeed="0.00" departDelay="1.00" arrival="202.50" arrivalLane="1_5_2" arrivalPos="186.40" arrivalSpeed="11.68" duration="43.50" routeLength="392.22" waitingTime="0.00" waitingCount="0" stopTime="0.00" timeLoss="12.79" rerouteNo="0" devices="tripinfo_WN_36" vType="cars" speedFactor="1.03" vaporized=""/>
    <tripinfo id="ES_37" depart="160.00" departLane="4_1_3" departPos="5.10" departSpeed="0.00" departDelay="0.00" arrival="203.00" arrivalLane="1_3_2" arrivalPos="186.40" arrivalSpeed="11.78" duration="43.00" routeLength="392.22" waitingTime="0.00" waitingCount="0" stopTime="0.00" timeLoss="12.23" rerouteNo="0" devices="tripinfo_ES_37" vType="cars" speedFactor="1.11" vaporized=""/>
    <personinfo id="person_NS_w.4" depart="22.10" type="DEFAULT_PEDTYPE" speedFactor="0.96" duration="181.50" waitingTime="0.00" timeLoss="15.51" traveltime="181.50">
        <walk depart="22.50" departPos="100.00" arrival="204.00" arrivalPos="93.20" duration="181.50" routeLength="221.25" timeLoss="15.51" maxSpeed="1.33"/>
    </personinfo>
    <personinfo id="person_NS_w.5" depart="28.81" type="DEFAULT_PEDTYPE" speedFactor="0.91" duration="185.00" waitingTime="0.00" timeLoss="9.33" traveltime="185.00">
        <walk depart="29.00" departPos="100.00" arrival="214.00" arrivalPos="93.20" duration="185.00" routeLength="221.25" timeLoss="9.33" maxSpeed="1.26"/>
    </personinfo>
    <tripinfo id="NS_24" depart="125.00" departLane="5_1_2" departPos="5.10" departSpeed="0.00" departDelay="0.00" arrival="216.00" arrivalLane="1_3_1" arrivalPos="186.40" arrivalSpeed="12.99" duration="91.00" routeLength="395.15" waitingTime="49.50" waitingCount="1" stopTime="0.00" timeLoss="60.59" rerouteNo="0" devices="tripinfo_NS_24" vType="cars" speedFactor="1.22" vaporized=""/>
    <tripinfo id="NS_26" depart="130.00" departLane="5_1_2" departPos="5.10" departSpeed="0.00" departDelay="0.00" arrival="216.50" arrivalLane="1_3_1" arrivalPos="186.40" arrivalSpeed="12.85" duration="86.50" routeLength="395.15" waitingTime="44.50" waitingCount="1" stopTime="0.00" timeLoss="55.65" rerouteNo="0" devices="tripinfo_NS_26" vType="cars" speedFactor="1.04" vaporized=""/>
    <tripinfo id="SN_25" depart="126.00" departLane="3_1_2" departPos="5.10" departSpeed="0.00" departDelay="0.00" arrival="217.50" arrivalLane="1_5_1" arrivalPos="186.40" arrivalSpeed="12.68" duration="91.50" routeLength="395.15" waitingTime="49.00" waitingCount="1" stopTime="0.00" timeLoss="60.90" rerouteNo="0" devices="tripinfo_SN_25" vType="cars" speedFactor="0.91" vaporized=""/>
    <tripinfo id="SN_27" depart="130.00" departLane="3_1_2" departPos="5.10" departSpeed="0.00" departDelay="0.00" arrival="217.50" arrivalLane="1_5_2" arrivalPos="186.40" arrivalSpeed="12.18" duration="87.50" routeLength="395.15" waitingTime="45.50" waitingCount="1" stopTime="0.00" timeLoss="56.81" rerouteNo="0" devices="tripinfo_SN_27" vType="cars" speedFactor="1.11" vaporized=""/>
    <tripinfo id="NS_31" depart="141.00" departLane="5_1_2" departPos="5.10" departSpeed="0.00" departDelay="2.00" arrival="218.00" arrivalLane="1_3_2" arrivalPos="186.40" arrivalSpeed="12.79" duration="77.00" routeLength="395.15" waitingTime="32.50" waitingCount="1" stopTime="0.00" timeLoss="46.56" rerouteNo="0" devices="tripinfo_NS_31" vType="cars" speedFactor="1.01" vaporized=""/>
    <tripinfo id="NS_30" depart="138.00" departLane="5_1_2" departPos="5.10" departSpeed="0.00" departDelay="0.00" arrival="219.00" arrivalLane="1_3_1" arrivalPos="186.40" arrivalSpeed="11.55" duration="81.00" routeLength="395.15" waitingTime="36.50" waitingCount="1" stopTime="0.00" timeLoss="50.25" rerouteNo="0" devices="tripinfo_NS_30" vType="cars" speedFactor="1.01" vaporized=""/>
    <tripinfo id="SN_35" depart="156.00" departLane="3_1_2" departPos="5.10" departSpeed="0.00" departDelay="0.00" arrival="219.50" arrivalLane="1_5_1" arrivalPos="186.40" arrivalSpeed="12.66" duration="63.50" routeLength="395.15" waitingTime="18.50" waitingCount="1" stopTime="0.00" timeLoss="32.97" rerouteNo="0" devices="tripinfo_SN_35" vType="cars" speedFactor="1.06" vaporized=""/>
    <tripinfo id="NS_32" depart="147.00" departLane="5_1_2" departPos="5.10" departSpeed="0.00" departDelay="0.00" arrival="220.50" arrivalLane="1_3_1" arrivalPos="186.40" arrivalSpeed="12.38" duration="73.50" routeLength="395.15" waitingTime="29.00" waitingCount="2" stopTime="0.00" timeLoss="42.97" rerouteNo="0" devices="tripinfo_NS_32" vType="cars" speedFactor="1.00" vaporized=""/>
    <tripinfo id="NS_34" depart="152.00" departLane="5_1_2" departPos="5.10" departSpeed="0.00" departDelay="0.00" arrival="221.00" arrivalLane="1_3_2" arrivalPos="186.40" arrivalSpeed="12.48" duration="69.00" routeLength="395.15" waitingTime="23.00" waitingCount="1" stopTime="0.00" timeLoss="38.36" rerouteNo="0" devices="tripinfo_NS_34" vType="cars" speedFactor="0.85" vaporized=""/>
    <personinfo id="person_NS_w.6" depart="35.57" type="DEFAULT_PEDTYPE" speedFactor="0.95" duration="187.00" waitingTime="0.00" timeLoss="18.93" traveltime="187.00">
        <walk depart="36.00" departPos="100.00" arrival="223.00" arrivalPos="93.20" duration="187.00" routeLength="221.25" timeLoss="18.93" maxSpeed="1.32"/>
    </personinfo>
    <tripinfo id="NS_38" depart="163.00" departLane="5_1_2" departPos="5.10" departSpeed="0.00" departDelay="0.00" arrival="223.00" arrivalLane="1_3_1" arrivalPos="186.40" arrivalSpeed="12.00" duration="60.00" routeLength="395.15" waitingTime="14.00" waitingCount="1" stopTime="0.00" timeLoss="29.33" rerouteNo="0" devices="tripinfo_NS_38" vType="cars" speedFactor="0.93" vaporized=""/>
    <personinfo id="person_NS_w.7" depart="50.97" type="DEFAULT_PEDTYPE" speedFactor="1.02" duration="172.50" waitingTime="0.00" timeLoss="16.65" traveltime="172.50">
        <walk depart="51.00" departPos="100.00" arrival="223.50" arrivalPos="93.20" duration="172.50" routeLength="221.25" timeLoss="16.65" maxSpeed="1.42"/>
    </personinfo>
    <personinfo id="person_SN_e.1" depart="49.21" type="DEFAULT_PEDTYPE" speedFactor="0.96" duration="175.00" waitingTime="0.00" timeLoss="9.02" traveltime="175.00">
        <walk depart="49.50" departPos="100.00" arrival="224.50" arrivalPos="93.20" duration="175.00" routeLength="221.24" timeLoss="9.02" maxSpeed="1.33"/>
    </personinfo>
    <tripinfo id="NS_40" depart="188.00" departLane="5_1_2" departPos="5.10" departSpeed="0.00" departDelay="0.00" arrival="224.50" arrivalLane="1_3_2" arrivalPos="186.40" arrivalSpeed="12.57" duration="36.50" routeLength="395.15" waitingTime="0.00" waitingCount="0" stopTime="0.00" timeLoss="5.89" rerouteNo="0" devices="tripinfo_NS_40" vType="cars" speedFactor="1.05" vaporized=""/>
    <personinfo id="person_WE_s.2" depart="64.24" type="DEFAULT_PEDTYPE" speedFactor="1.20" duration="165.00" waitingTime="0.00" timeLoss="32.35" traveltime="165.00">
        <walk depart="64.50" departPos="100.00" arrival="229.50" arrivalPos="93.20" duration="165.00" routeLength="221.17" timeLoss="32.35" maxSpeed="1.67"/>
    </personinfo>
    <tripinfo id="NW_33" depart="147.00" departLane="5_1_1" departPos="5.10" departSpeed="0.00" departDelay="0.00" arrival="229.50" arrivalLane="1_2_1" arrivalPos="186.40" arrivalSpeed="12.94" duration="82.50" routeLength="379.43" waitingTime="31.00" waitingCount="2" stopTime="0.00" timeLoss="51.95" rerouteNo="0" devices="tripinfo_NW_33" vType="cars" speedFactor="0.83" vaporized=""/>
    <personinfo id="person_ES_diag.1" depart="59.42" type="DEFAULT_PEDTYPE" speedFactor="1.13" duration="171.00" waitingTime="0.00" timeLoss="28.57" traveltime="171.00">
        <walk depart="59.50" departPos="100.00" arrival="230.50" arrivalPos="93.20" duration="171.00" routeLength="223.30" timeLoss="28.57" maxSpeed="1.57"/>
    </personinfo>
    <personinfo id="person_ES_diag.0" depart="51.35" type="DEFAULT_PEDTYPE" speedFactor="1.15" duration="180.00" waitingTime="0.00" timeLoss="40.61" traveltime="180.00">
        <walk depart="51.50" departPos="100.00" arrival="231.50" arrivalPos="93.20" duration="180.00" routeLength="223.30" timeLoss="40.61" maxSpeed="1.60"/>
    </personinfo>
    <tripinfo id="SN_42" depart="196.00" departLane="3_1_2" departPos="5.10" departSpeed="0.00" departDelay="0.00" arrival="232.50" arrivalLane="1_5_1" arrivalPos="186.40" arrivalSpeed="12.40" duration="36.50" routeLength="395.15" waitingTime="0.00" waitingCount="0" stopTime="0.00" timeLoss="5.71" rerouteNo="0" devices="tripinfo_SN_42" vType="cars" speedFactor="1.04" vaporized=""/>
    <tripinfo id="NS_43" depart="197.00" departLane="5_1_2" departPos="5.10" departSpeed="0.00" departDelay="0.00" arrival="234.00" arrivalLane="1_3_1" arrivalPos="186.40" arrivalSpeed="12.93" duration="37.00" routeLength="395.15" waitingTime="0.00" waitingCount="0" stopTime="0.00" timeLoss="6.13" rerouteNo="0" devices="tripinfo_NS_43" vType="cars" speedFactor="0.98" vaporized=""/>
    <tripinfo id="SN_44" depart="199.00" departLane="3_1_2" departPos="5.10" departSpeed="0.00" departDelay="1.00" arrival="235.50" arrivalLane="1_5_1" arrivalPos="186.40" arrivalSpeed="12.13" duration="36.50" routeLength="395.15" waitingTime="0.00" waitingCount="0" stopTime="0.00" timeLoss="6.01" rerouteNo="0" devices="tripinfo_SN_44" vType="cars" speedFactor="1.00" vaporized=""/>
    <tripinfo id="NS_45" depart="200.00" departLane="5_1_2" departPos="5.10" departSpeed="0.00" departDelay="0.00" arrival="236.50" arrivalLane="1_3_1" arrivalPos="186.40" arrivalSpeed="11.58" duration="36.50" routeLength="395.15" waitingTime="0.00" waitingCount="0" stopTime="0.00" timeLoss="5.73" rerouteNo="0" devices="tripinfo_NS_45" vType="cars" speedFactor="0.87" vaporized=""/>
    <personinfo id="person_EW_n.0" depart="20.64" type="DEFAULT_PEDTYPE" speedFactor="1.09" duration="216.50" waitingTime="0.00" timeLoss="70.56" traveltime="216.50">
        <walk depart="21.00" departPos="100.00" arrival="237.50" arrivalPos="93.20" duration="216.50" routeLength="221.32" timeLoss="70.56" maxSpeed="1.52"/>
    </personinfo>
    <personinfo id="person_WE_s.1" depart="54.13" type="DEFAULT_PEDTYPE" speedFactor="1.08" duration="184.00" waitingTime="0.00" timeLoss="36.92" traveltime="184.00">