<?xml version="1.0" encoding="UTF-8"?>

<!-- generated on 2025-07-02 16:02:32 by Eclipse SUMO GUI Version 1.22.0
<sumoConfiguration xmlns:xsi="http://www.w3.org/2001/XMLSchema-instance" xsi:noNamespaceSchemaLocation="http://sumo.dlr.de/xsd/sumoConfiguration.xsd">

    <input>
        <net-file value="/home/naderian/Desktop/Shakiba/MMSVCC/environment/network_model/single_intersection_bike_Concurrent_(permitted_right).net.xml"/>
        <route-files value="/home/naderian/Desktop/Shakiba/MMSVCC/environment/network_model/single_intersection.rou.xml"/>
        <additional-files value="/home/naderian/Desktop/Shakiba/MMSVCC/environment/network_model/single_intersection.add_actuated_(permitted_right).xml"/>
    </input>

    <output>
        <queue-output value="/home/naderian/Desktop/Shakiba/MMSVCC/environment/simulation_data/single_intersection/queues_actuated_symmetric_pene_100.xml"/>
        <tripinfo-output value="/home/naderian/Desktop/Shakiba/MMSVCC/environment/simulation_data/single_intersection/tripinfo_actuated_symmetric_pene_100.xml"/>
    </output>

    <time>
        <begin value="0"/>
        <step-length value="0.5"/>
    </time>

    <processing>
        <waiting-time-memory value="1000"/>
    </processing>

    <report>
        <verbose value="true"/>
        <no-step-log value="true"/>
    </report>

    <ssm_device>
        <device.ssm.file value="/home/naderian/Desktop/Shakiba/MMSVCC/environment/simulation_data/single_intersection/SSMinfo_actuated_pene_100.xml"/>
    </ssm_device>

    <traci_server>
        <remote-port value="55773"/>
    </traci_server>

    <gui_only>
        <start value="true"/>
    </gui_only>

</sumoConfiguration>
-->

<tripinfos xmlns:xsi="http://www.w3.org/2001/XMLSchema-instance" xsi:noNamespaceSchemaLocation="http://sumo.dlr.de/xsd/tripinfo_file.xsd">
    <tripinfo id="SN_0" depart="0.00" departLane="3_1_4" departPos="5.10" departSpeed="0.00" departDelay="0.00" arrival="36.00" arrivalLane="1_5_3" arrivalPos="184.90" arrivalSpeed="12.96" duration="36.00" routeLength="395.12" waitingTime="0.00" waitingCount="0" stopTime="0.00" timeLoss="5.22" rerouteNo="0" devices="tripinfo_SN_0 ssm_SN_0" vType="cars" speedFactor="1.02" vaporized=""/>
    <tripinfo id="NS_1" depart="1.00" departLane="5_1_4" departPos="5.10" departSpeed="0.00" departDelay="0.00" arrival="36.50" arrivalLane="1_3_3" arrivalPos="184.90" arrivalSpeed="12.56" duration="35.50" routeLength="395.12" waitingTime="0.00" waitingCount="0" stopTime="0.00" timeLoss="5.00" rerouteNo="0" devices="tripinfo_NS_1 ssm_NS_1" vType="cars" speedFactor="1.01" vaporized=""/>
    <tripinfo id="SN_2" depart="5.00" departLane="3_1_4" departPos="5.10" departSpeed="0.00" departDelay="0.00" arrival="41.00" arrivalLane="1_5_3" arrivalPos="184.90" arrivalSpeed="11.68" duration="36.00" routeLength="395.12" waitingTime="0.00" waitingCount="0" stopTime="0.00" timeLoss="5.23" rerouteNo="0" devices="tripinfo_SN_2 ssm_SN_2" vType="cars" speedFactor="1.05" vaporized=""/>
    <tripinfo id="SE_4" depart="9.00" departLane="3_1_3" departPos="5.10" departSpeed="0.00" departDelay="0.00" arrival="46.50" arrivalLane="1_4_3" arrivalPos="184.90" arrivalSpeed="12.47" duration="37.50" routeLength="378.82" waitingTime="0.00" waitingCount="0" stopTime="0.00" timeLoss="7.51" rerouteNo="0" devices="tripinfo_SE_4 ssm_SE_4" vType="cars" speedFactor="0.94" vaporized=""/>
    <tripinfo id="NS_5" depart="11.00" departLane="5_1_4" departPos="5.10" departSpeed="0.00" departDelay="0.00" arrival="48.50" arrivalLane="1_3_3" arrivalPos="184.90" arrivalSpeed="11.71" duration="37.50" routeLength="395.12" waitingTime="0.00" waitingCount="0" stopTime="0.00" timeLoss="6.85" rerouteNo="0" devices="tripinfo_NS_5 ssm_NS_5" vType="cars" speedFactor="0.91" vaporized=""/>
    <tripinfo id="NS_8" depart="17.00" departLane="5_1_4" departPos="5.10" departSpeed="0.00" departDelay="0.00" arrival="53.00" arrivalLane="1_3_3" arrivalPos="184.90" arrivalSpeed="11.95" duration="36.00" routeLength="395.12" waitingTime="0.00" waitingCount="0" stopTime="0.00" timeLoss="5.18" rerouteNo="0" devices="tripinfo_NS_8 ssm_NS_8" vType="cars" speedFactor="0.95" vaporized=""/>
    <tripinfo id="SN_9" depart="18.00" departLane="3_1_4" departPos="5.10" departSpeed="0.00" departDelay="0.00" arrival="53.50" arrivalLane="1_5_3" arrivalPos="184.90" arrivalSpeed="12.82" duration="35.50" routeLength="395.12" waitingTime="0.00" waitingCount="0" stopTime="0.00" timeLoss="4.88" rerouteNo="0" devices="tripinfo_SN_9 ssm_SN_9" vType="cars" speedFactor="0.76" vaporized=""/>
    <tripinfo id="NS_11" depart="20.00" departLane="5_1_4" departPos="5.10" departSpeed="0.00" departDelay="0.00" arrival="55.50" arrivalLane="1_3_3" arrivalPos="184.90" arrivalSpeed="12.39" duration="35.50" routeLength="395.12" waitingTime="0.00" waitingCount="0" stopTime="0.00" timeLoss="5.03" rerouteNo="0" devices="tripinfo_NS_11 ssm_NS_11" vType="cars" speedFactor="1.01" vaporized=""/>
    <tripinfo id="SN_12" depart="25.00" departLane="3_1_4" departPos="5.10" departSpeed="0.00" departDelay="0.00" arrival="61.50" arrivalLane="1_5_3" arrivalPos="184.90" arrivalSpeed="12.36" duration="36.50" routeLength="395.12" waitingTime="0.00" waitingCount="0" stopTime="0.00" timeLoss="5.68" rerouteNo="0" devices="tripinfo_SN_12 ssm_SN_12" vType="cars" speedFactor="0.83" vaporized=""/>
    <tripinfo id="NS_13" depart="26.00" departLane="5_1_4" departPos="5.10" departSpeed="0.00" departDelay="0.00" arrival="61.50" arrivalLane="1_3_3" arrivalPos="184.90" arrivalSpeed="11.54" duration="35.50" routeLength="395.12" waitingTime="0.00" waitingCount="0" stopTime="0.00" timeLoss="4.88" rerouteNo="0" devices="tripinfo_NS_13 ssm_NS_13" vType="cars" speedFactor="0.95" vaporized=""/>
    <tripinfo id="WE_1" depart="12.00" departLane="2_1_4" departPos="5.10" departSpeed="0.00" departDelay="0.00" arrival="84.50" arrivalLane="1_4_4" arrivalPos="184.90" arrivalSpeed="11.68" duration="72.50" routeLength="395.12" waitingTime="31.50" waitingCount="1" stopTime="0.00" timeLoss="41.95" rerouteNo="0" devices="tripinfo_WE_1 ssm_WE_1" vType="cars" speedFactor="1.30" vaporized=""/>
    <tripinfo id="WE_0" depart="1.00" departLane="2_1_4" departPos="5.10" departSpeed="0.00" departDelay="0.00" arrival="85.00" arrivalLane="1_4_3" arrivalPos="184.90" arrivalSpeed="11.83" duration="84.00" routeLength="395.12" waitingTime="43.00" waitingCount="1" stopTime="0.00" timeLoss="53.52" rerouteNo="0" devices="tripinfo_WE_0 ssm_WE_0" vType="cars" speedFactor="1.12" vaporized=""/>
    <tripinfo id="EW_0" depart="22.00" departLane="4_1_4" departPos="5.10" departSpeed="0.00" departDelay="0.00" arrival="85.50" arrivalLane="1_2_3" arrivalPos="184.90" arrivalSpeed="11.76" duration="63.50" routeLength="395.12" waitingTime="21.50" waitingCount="1" stopTime="0.00" timeLoss="32.74" rerouteNo="0" devices="tripinfo_EW_0 ssm_EW_0" vType="cars" speedFactor="1.01" vaporized=""/>
    <tripinfo id="WE_2" depart="22.00" departLane="2_1_4" departPos="5.10" departSpeed="0.00" departDelay="0.00" arrival="86.50" arrivalLane="1_4_4" arrivalPos="184.90" arrivalSpeed="11.93" duration="64.50" routeLength="395.12" waitingTime="19.50" waitingCount="1" stopTime="0.00" timeLoss="33.77" rerouteNo="0" devices="tripinfo_WE_2 ssm_WE_2" vType="cars" speedFactor="0.89" vaporized=""/>
    <tripinfo id="EN_10" depart="22.50" departLane="4_1_3" departPos="5.10" departSpeed="0.00" departDelay="2.50" arrival="87.00" arrivalLane="1_5_3" arrivalPos="184.90" arrivalSpeed="12.44" duration="64.50" routeLength="378.83" waitingTime="2.50" waitingCount="1" stopTime="0.00" timeLoss="34.34" rerouteNo="0" devices="tripinfo_EN_10 ssm_EN_10" vType="cars" speedFactor="0.96" vaporized=""/>
    <tripinfo id="WE_3" depart="27.00" departLane="2_1_4" departPos="5.10" departSpeed="0.00" departDelay="0.00" arrival="88.50" arrivalLane="1_4_3" arrivalPos="184.90" arrivalSpeed="11.81" duration="61.50" routeLength="395.12" waitingTime="16.50" waitingCount="1" stopTime="0.00" timeLoss="30.93" rerouteNo="0" devices="tripinfo_WE_3 ssm_WE_3" vType="cars" speedFactor="1.06" vaporized=""/>
    <tripinfo id="EW_1" depart="42.00" departLane="4_1_4" departPos="5.10" departSpeed="0.00" departDelay="0.00" arrival="90.00" arrivalLane="1_2_3" arrivalPos="184.90" arrivalSpeed="12.51" duration="48.00" routeLength="395.12" waitingTime="0.00" waitingCount="0" stopTime="0.00" timeLoss="17.38" rerouteNo="0" devices="tripinfo_EW_1 ssm_EW_1" vType="cars" speedFactor="1.02" vaporized=""/>
    <tripinfo id="WS_3" depart="7.00" departLane="2_1_3" departPos="5.10" departSpeed="0.00" departDelay="0.00" arrival="90.50" arrivalLane="1_3_3" arrivalPos="184.90" arrivalSpeed="12.21" duration="83.50" routeLength="378.83" waitingTime="36.00" waitingCount="3" stopTime="0.00" timeLoss="53.38" rerouteNo="0" devices="tripinfo_WS_3 ssm_WS_3" vType="cars" speedFactor="1.01" vaporized=""/>
    <tripinfo id="WE_4" depart="50.00" departLane="2_1_4" departPos="5.10" departSpeed="0.00" departDelay="0.00" arrival="91.00" arrivalLane="1_4_4" arrivalPos="184.90" arrivalSpeed="12.25" duration="41.00" routeLength="395.12" waitingTime="0.00" waitingCount="0" stopTime="0.00" timeLoss="10.35" rerouteNo="0" devices="tripinfo_WE_4 ssm_WE_4" vType="cars" speedFactor="1.01" vaporized=""/>
    <tripinfo id="EW_2" depart="46.00" departLane="4_1_4" departPos="5.10" departSpeed="0.00" departDelay="0.00" arrival="92.50" arrivalLane="1_2_4" arrivalPos="184.90" arrivalSpeed="12.62" duration="46.50" routeLength="395.12" waitingTime="0.00" waitingCount="0" stopTime="0.00" timeLoss="15.83" rerouteNo="0" devices="tripinfo_EW_2 ssm_EW_2" vType="cars" speedFactor="1.18" vaporized=""/>
    <tripinfo id="EW_3" depart="59.00" departLane="4_1_4" departPos="5.10" departSpeed="0.00" departDelay="0.00" arrival="95.50" arrivalLane="1_2_3" arrivalPos="184.90" arrivalSpeed="11.88" duration="36.50" routeLength="395.12" waitingTime="0.00" waitingCount="0" stopTime="0.00" timeLoss="5.88" rerouteNo="0" devices="tripinfo_EW_3 ssm_EW_3" vType="cars" speedFactor="0.98" vaporized=""/>
    <tripinfo id="EW_4" depart="62.00" departLane="4_1_4" departPos="5.10" departSpeed="0.00" departDelay="0.00" arrival="99.00" arrivalLane="1_2_3" arrivalPos="184.90" arrivalSpeed="11.76" duration="37.00" routeLength="395.12" waitingTime="0.00" waitingCount="0" stopTime="0.00" timeLoss="6.50" rerouteNo="0" devices="tripinfo_EW_4 ssm_EW_4" vType="cars" speedFactor="0.95" vaporized=""/>
    <tripinfo id="WS-bike.0" depart="23.00" departLane="2_1_1" departPos="1.70" departSpeed="0.00" departDelay="0.40" arrival="101.00" arrivalLane="1_3_1" arrivalPos="184.90" arrivalSpeed="6.30" duration="78.00" routeLength="377.28" waitingTime="3.50" waitingCount="1" stopTime="0.00" timeLoss="18.65" rerouteNo="0" devices="tripinfo_WS-bike.0 ssm_WS-bike.0" vType="bike" speedFactor="1.15" vaporized=""/>
    <tripinfo id="EW-bike.0" depart="9.00" departLane="4_1_1" departPos="1.70" departSpeed="0.00" departDelay="0.21" arrival="102.50" arrivalLane="1_2_1" arrivalPos="184.90" arrivalSpeed="5.97" duration="93.50" routeLength="398.71" waitingTime="20.00" waitingCount="1" stopTime="0.00" timeLoss="29.26" rerouteNo="0" devices="tripinfo_EW-bike.0 ssm_EW-bike.0" vType="bike" speedFactor="1.12" vaporized=""/>
    <tripinfo id="WE-bike.0" depart="2.00" departLane="2_1_1" departPos="1.70" departSpeed="0.00" departDelay="0.08" arrival="103.50" arrivalLane="1_4_1" arrivalPos="184.90" arrivalSpeed="5.78" duration="101.50" routeLength="398.63" waitingTime="26.50" waitingCount="1" stopTime="0.00" timeLoss="35.25" rerouteNo="0" devices="tripinfo_WE-bike.0 ssm_WE-bike.0" vType="bike" speedFactor="1.08" vaporized=""/>
    <tripinfo id="WS_6" depart="14.00" departLane="2_1_3" departPos="5.10" departSpeed="0.00" departDelay="0.00" arrival="109.50" arrivalLane="1_3_3" arrivalPos="184.90" arrivalSpeed="12.18" duration="95.50" routeLength="378.83" waitingTime="41.50" waitingCount="3" stopTime="0.00" timeLoss="65.34" rerouteNo="0" devices="tripinfo_WS_6 ssm_WS_6" vType="cars" speedFactor="0.89" vaporized=""/>
    <tripinfo id="NW-bike.0" depart="47.50" departLane="5_1_1" departPos="1.70" departSpeed="0.00" departDelay="0.14" arrival="110.00" arrivalLane="1_2_2" arrivalPos="184.90" arrivalSpeed="6.35" duration="62.50" routeLength="377.27" waitingTime="0.00" waitingCount="0" stopTime="0.00" timeLoss="5.10" rerouteNo="0" devices="tripinfo_NW-bike.0 ssm_NW-bike.0" vType="bike" speedFactor="1.19" vaporized=""/>
    <tripinfo id="EW-bike.1" depart="18.50" departLane="4_1_3" departPos="1.70" departSpeed="0.00" departDelay="0.23" arrival="110.50" arrivalLane="1_2_1" arrivalPos="184.90" arrivalSpeed="4.86" duration="92.00" routeLength="398.52" waitingTime="3.50" waitingCount="1" stopTime="0.00" timeLoss="12.33" rerouteNo="0" devices="tripinfo_EW-bike.1 ssm_EW-bike.1" vType="bike" speedFactor="0.90" vaporized=""/>
    <tripinfo id="ES_24" depart="73.00" departLane="4_1_5" departPos="5.10" departSpeed="0.00" departDelay="0.00" arrival="114.50" arrivalLane="1_3_4" arrivalPos="184.90" arrivalSpeed="11.89" duration="41.50" routeLength="391.63" waitingTime="0.00" waitingCount="0" stopTime="0.00" timeLoss="11.02" rerouteNo="0" devices="tripinfo_ES_24 ssm_ES_24" vType="cars" speedFactor="1.05" vaporized=""/>
    <tripinfo id="WN_7" depart="16.00" departLane="2_1_5" departPos="5.10" departSpeed="0.00" departDelay="0.00" arrival="115.00" arrivalLane="1_5_4" arrivalPos="184.90" arrivalSpeed="12.11" duration="99.00" routeLength="391.63" waitingTime="57.50" waitingCount="1" stopTime="0.00" timeLoss="68.03" rerouteNo="0" devices="tripinfo_WN_7 ssm_WN_7" vType="cars" speedFactor="0.93" vaporized=""/>
    <tripinfo id="WE-bike.1" depart="15.00" departLane="2_1_1" departPos="1.70" departSpeed="0.00" departDelay="0.36" arrival="115.50" arrivalLane="1_4_1" arrivalPos="184.90" arrivalSpeed="4.38" duration="100.50" routeLength="398.63" waitingTime="4.00" waitingCount="1" stopTime="0.00" timeLoss="14.63" rerouteNo="0" devices="tripinfo_WE-bike.1 ssm_WE-bike.1" vType="bike" speedFactor="0.84" vaporized=""/>
    <tripinfo id="WE-bike.3" depart="44.50" departLane="2_1_4" departPos="1.70" departSpeed="0.00" departDelay="0.08" arrival="122.00" arrivalLane="1_4_1" arrivalPos="184.90" arrivalSpeed="5.60" duration="77.50" routeLength="398.52" waitingTime="0.00" waitingCount="0" stopTime="0.00" timeLoss="7.01" rerouteNo="0" devices="tripinfo_WE-bike.3 ssm_WE-bike.3" vType="bike" speedFactor="1.02" vaporized=""/>
    <tripinfo id="WE-bike.2" depart="37.00" departLane="2_1_3" departPos="1.70" departSpeed="0.00" departDelay="0.19" arrival="127.50" arrivalLane="1_4_1" arrivalPos="184.90" arrivalSpeed="4.50" duration="90.50" routeLength="398.52" waitingTime="0.00" waitingCount="0" stopTime="0.00" timeLoss="5.72" rerouteNo="0" devices="tripinfo_WE-bike.2 ssm_WE-bike.2" vType="bike" speedFactor="0.85" vaporized=""/>
    <tripinfo id="SN_15" depart="29.00" departLane="3_1_4" departPos="5.10" departSpeed="0.00" departDelay="0.00" arrival="129.50" arrivalLane="1_5_3" arrivalPos="184.90" arrivalSpeed="11.67" duration="100.50" routeLength="395.12" waitingTime="59.50" waitingCount="1" stopTime="0.00" timeLoss="70.06" rerouteNo="0" devices="tripinfo_SN_15 ssm_SN_15" vType="cars" speedFactor="0.85" vaporized=""/>
    <tripinfo id="NS_16" depart="31.50" departLane="5_1_4" departPos="5.10" departSpeed="0.00" departDelay="1.50" arrival="129.50" arrivalLane="1_3_3" arrivalPos="184.90" arrivalSpeed="12.17" duration="98.00" routeLength="395.12" waitingTime="55.50" waitingCount="1" stopTime="0.00" timeLoss="67.18" rerouteNo="0" devices="tripinfo_NS_16 ssm_NS_16" vType="cars" speedFactor="1.12" vaporized=""/>
    <tripinfo id="SN_17" depart="33.00" departLane="3_1_4" departPos="5.10" departSpeed="0.00" departDelay="0.00" arrival="129.50" arrivalLane="1_5_4" arrivalPos="184.90" arrivalSpeed="12.48" duration="96.50" routeLength="395.12" waitingTime="55.50" waitingCount="1" stopTime="0.00" timeLoss="65.87" rerouteNo="0" devices="tripinfo_SN_17 ssm_SN_17" vType="cars" speedFactor="1.10" vaporized=""/>
    <tripinfo id="WE-bike.4" depart="48.00" departLane="2_1_1" departPos="1.70" departSpeed="0.00" departDelay="0.36" arrival="130.50" arrivalLane="1_4_1" arrivalPos="184.90" arrivalSpeed="4.83" duration="82.50" routeLength="398.63" waitingTime="0.00" waitingCount="0" stopTime="0.00" timeLoss="4.35" rerouteNo="0" devices="tripinfo_WE-bike.4 ssm_WE-bike.4" vType="bike" speedFactor="0.92" vaporized=""/>
    <tripinfo id="NS_14" depart="28.50" departLane="5_1_4" departPos="5.10" departSpeed="0.00" departDelay="1.50" arrival="131.00" arrivalLane="1_3_3" arrivalPos="184.90" arrivalSpeed="11.56" duration="102.50" routeLength="395.12" waitingTime="59.50" waitingCount="1" stopTime="0.00" timeLoss="71.94" rerouteNo="0" devices="tripinfo_NS_14 ssm_NS_14" vType="cars" speedFactor="0.93" vaporized=""/>
    <tripinfo id="SN_18" depart="36.00" departLane="3_1_4" departPos="5.10" departSpeed="0.00" departDelay="0.00" arrival="132.50" arrivalLane="1_5_4" arrivalPos="184.90" arrivalSpeed="12.82" duration="96.50" routeLength="395.12" waitingTime="50.50" waitingCount="1" stopTime="0.00" timeLoss="65.95" rerouteNo="0" devices="tripinfo_SN_18 ssm_SN_18" vType="cars" speedFactor="0.96" vaporized=""/>
    <tripinfo id="NS_22" depart="66.00" departLane="5_1_4" departPos="5.10" departSpeed="0.00" departDelay="0.00" arrival="132.50" arrivalLane="1_3_4" arrivalPos="184.90" arrivalSpeed="11.88" duration="66.50" routeLength="395.12" waitingTime="21.50" waitingCount="1" stopTime="0.00" timeLoss="35.71" rerouteNo="0" devices="tripinfo_NS_22 ssm_NS_22" vType="cars" speedFactor="0.93" vaporized=""/>
    <tripinfo id="NS_26" depart="75.00" departLane="5_1_4" departPos="5.10" departSpeed="0.00" departDelay="0.00" arrival="134.00" arrivalLane="1_3_4" arrivalPos="184.90" arrivalSpeed="11.94" duration="59.00" routeLength="395.12" waitingTime="13.00" waitingCount="1" stopTime="0.00" timeLoss="28.52" rerouteNo="0" devices="tripinfo_NS_26 ssm_NS_26" vType="cars" speedFactor="1.04" vaporized=""/>
    <tripinfo id="SN_20" depart="40.00" departLane="3_1_4" departPos="5.10" departSpeed="0.00" departDelay="0.00" arrival="135.00" arrivalLane="1_5_4" arrivalPos="184.90" arrivalSpeed="11.87" duration="95.00" routeLength="395.12" waitingTime="47.50" waitingCount="1" stopTime="0.00" timeLoss="64.19" rerouteNo="0" devices="tripinfo_SN_20 ssm_SN_20" vType="cars" speedFactor="0.84" vaporized=""/>
    <tripinfo id="NS_29" depart="83.00" departLane="5_1_4" departPos="5.10" departSpeed="0.00" departDelay="0.00" arrival="136.00" arrivalLane="1_3_4" arrivalPos="184.90" arrivalSpeed="11.89" duration="53.00" routeLength="395.12" waitingTime="6.00" waitingCount="1" stopTime="0.00" timeLoss="22.31" rerouteNo="0" devices="tripinfo_NS_29 ssm_NS_29" vType="cars" speedFactor="1.05" vaporized=""/>
    <tripinfo id="SN_25" depart="74.00" departLane="3_1_4" departPos="5.10" departSpeed="0.00" departDelay="0.00" arrival="137.50" arrivalLane="1_5_4" arrivalPos="184.90" arrivalSpeed="12.11" duration="63.50" routeLength="395.12" waitingTime="10.00" waitingCount="1" stopTime="0.00" timeLoss="32.70" rerouteNo="0" devices="tripinfo_SN_25 ssm_SN_25" vType="cars" speedFactor="1.01" vaporized=""/>
    <tripinfo id="NS_32" depart="87.00" departLane="5_1_4" departPos="5.10" departSpeed="0.00" departDelay="0.00" arrival="138.50" arrivalLane="1_3_4" arrivalPos="184.90" arrivalSpeed="11.67" duration="51.50" routeLength="395.12" waitingTime="2.00" waitingCount="1" stopTime="0.00" timeLoss="20.85" rerouteNo="0" devices="tripinfo_NS_32 ssm_NS_32" vType="cars" speedFactor="0.98" vaporized=""/>
    <tripinfo id="NS_37" depart="105.00" departLane="5_1_4" departPos="5.10" departSpeed="0.00" departDelay="0.00" arrival="141.50" arrivalLane="1_3_4" arrivalPos="184.90" arrivalSpeed="12.84" duration="36.50" routeLength="395.12" waitingTime="0.00" waitingCount="0" stopTime="0.00" timeLoss="5.83" rerouteNo="0" devices="tripinfo_NS_37 ssm_NS_37" vType="cars" speedFactor="0.95" vaporized=""/>
    <tripinfo id="WN-bike.1" depart="45.00" departLane="2_1_5" departPos="1.70" departSpeed="0.00" departDelay="0.38" arrival="141.50" arrivalLane="1_5_1" arrivalPos="184.90" arrivalSpeed="4.88" duration="96.50" routeLength="395.03" waitingTime="7.50" waitingCount="1" stopTime="0.00" timeLoss="17.36" rerouteNo="0" devices="tripinfo_WN-bike.1 ssm_WN-bike.1" vType="bike" speedFactor="0.90" vaporized=""/>
    <tripinfo id="SN_28" depart="81.00" departLane="3_1_4" departPos="5.10" departSpeed="0.00" departDelay="0.00" arrival="144.00" arrivalLane="1_5_4" arrivalPos="184.90" arrivalSpeed="12.58" duration="63.00" routeLength="395.12" waitingTime="8.50" waitingCount="1" stopTime="0.00" timeLoss="32.19" rerouteNo="0" devices="tripinfo_SN_28 ssm_SN_28" vType="cars" speedFactor="1.09" vaporized=""/>
    <tripinfo id="SN_30" depart="84.00" departLane="3_1_4" departPos="5.10" departSpeed="0.00" departDelay="1.00" arrival="146.00" arrivalLane="1_5_4" arrivalPos="184.90" arrivalSpeed="12.08" duration="62.00" routeLength="395.12" waitingTime="7.00" waitingCount="1" stopTime="0.00" timeLoss="31.19" rerouteNo="0" devices="tripinfo_SN_30 ssm_SN_30" vType="cars" speedFactor="1.00" vaporized=""/>
    <tripinfo id="SN_34" depart="97.00" departLane="3_1_4" departPos="5.10" departSpeed="0.00" departDelay="0.00" arrival="146.50" arrivalLane="1_5_3" arrivalPos="184.90" arrivalSpeed="11.85" duration="49.50" routeLength="395.12" waitingTime="0.00" waitingCount="0" stopTime="0.00" timeLoss="19.08" rerouteNo="0" devices="tripinfo_SN_34 ssm_SN_34" vType="cars" speedFactor="1.25" vaporized=""/>
    <tripinfo id="SN_38" depart="107.00" departLane="3_1_4" departPos="5.10" departSpeed="0.00" departDelay="0.00" arrival="147.50" arrivalLane="1_5_4" arrivalPos="184.90" arrivalSpeed="12.63" duration="40.50" routeLength="395.12" waitingTime="0.00" waitingCount="0" stopTime="0.00" timeLoss="9.90" rerouteNo="0" devices="tripinfo_SN_38 ssm_SN_38" vType="cars" speedFactor="0.98" vaporized=""/>
    <tripinfo id="NS_41" depart="111.00" departLane="5_1_4" departPos="5.10" departSpeed="0.00" departDelay="0.00" arrival="147.50" arrivalLane="1_3_4" arrivalPos="184.90" arrivalSpeed="12.86" duration="36.50" routeLength="395.12" waitingTime="0.00" waitingCount="0" stopTime="0.00" timeLoss="5.75" rerouteNo="0" devices="tripinfo_NS_41 ssm_NS_41" vType="cars" speedFactor="1.05" vaporized=""/>
    <tripinfo id="SN_40" depart="110.00" departLane="3_1_4" departPos="5.10" departSpeed="0.00" departDelay="0.00" arrival="149.50" arrivalLane="1_5_3" arrivalPos="184.90" arrivalSpeed="11.86" duration="39.50" routeLength="395.12" waitingTime="0.00" waitingCount="0" stopTime="0.00" timeLoss="8.80" rerouteNo="0" devices="tripinfo_SN_40 ssm_SN_40" vType="cars" speedFactor="1.12" vaporized=""/>
    <tripinfo id="WN-bike.0" depart="40.50" departLane="2_1_2" departPos="1.70" departSpeed="0.00" departDelay="0.07" arrival="149.50" arrivalLane="1_5_1" arrivalPos="184.90" arrivalSpeed="5.32" duration="109.00" routeLength="419.78" waitingTime="25.50" waitingCount="1" stopTime="0.00" timeLoss="33.44" rerouteNo="0" devices="tripinfo_WN-bike.0 ssm_WN-bike.0" vType="bike" speedFactor="1.00" vaporized=""/>
    <tripinfo id="SE_19" depart="39.00" departLane="3_1_3" departPos="5.10" departSpeed="0.00" departDelay="0.00" arrival="151.50" arrivalLane="1_4_3" arrivalPos="184.90" arrivalSpeed="11.76" duration="112.50" routeLength="378.82" waitingTime="58.00" waitingCount="2" stopTime="0.00" timeLoss="82.11" rerouteNo="0" devices="tripinfo_SE_19 ssm_SE_19" vType="cars" speedFactor="0.92" vaporized=""/>
    <tripinfo id="SN-bike.2" depart="20.50" departLane="3_1_1" departPos="1.70" departSpeed="0.00" departDelay="0.11" arrival="151.50" arrivalLane="1_5_1" arrivalPos="184.90" arrivalSpeed="6.00" duration="131.00" routeLength="398.62" waitingTime="52.50" waitingCount="1" stopTime="0.00" timeLoss="64.51" rerouteNo="0" devices="tripinfo_SN-bike.2 ssm_SN-bike.2" vType="bike" speedFactor="1.08" vaporized=""/>
    <tripinfo id="SN-bike.3" depart="27.00" departLane="3_1_3" departPos="1.70" departSpeed="0.00" departDelay="0.27" arrival="152.50" arrivalLane="1_5_2" arrivalPos="184.90" arrivalSpeed="5.96" duration="125.50" routeLength="398.52" waitingTime="45.50" waitingCount="1" stopTime="0.00" timeLoss="61.02" rerouteNo="0" devices="tripinfo_SN-bike.3 ssm_SN-bike.3" vType="bike" speedFactor="1.12" vaporized=""/>
    <tripinfo id="NS-bike.0" depart="52.00" departLane="5_1_3" departPos="1.70" departSpeed="0.00" departDelay="0.49" arrival="154.50" arrivalLane="1_3_1" arrivalPos="184.90" arrivalSpeed="5.12" duration="102.50" routeLength="398.52" waitingTime="17.50" waitingCount="1" stopTime="0.00" timeLoss="27.74" rerouteNo="0" devices="tripinfo_NS-bike.0 ssm_NS-bike.0" vType="bike" speedFactor="0.96" vaporized=""/>
    <tripinfo id="NW_21" depart="56.00" departLane="5_1_3" departPos="5.10" departSpeed="0.00" departDelay="3.00" arrival="157.50" arrivalLane="1_2_3" arrivalPos="184.90" arrivalSpeed="11.56" duration="101.50" routeLength="378.83" waitingTime="37.50" waitingCount="2" stopTime="0.00" timeLoss="71.03" rerouteNo="0" devices="tripinfo_NW_21 ssm_NW_21" vType="cars" speedFactor="0.79" vaporized=""/>
    <tripinfo id="SN-bike.0" depart="5.00" departLane="3_1_1" departPos="1.70" departSpeed="0.00" departDelay="0.06" arrival="158.00" arrivalLane="1_5_1" arrivalPos="184.90" arrivalSpeed="4.73" duration="153.00" routeLength="398.62" waitingTime="61.00" waitingCount="1" stopTime="0.00" timeLoss="69.48" rerouteNo="0" devices="tripinfo_SN-bike.0 ssm_SN-bike.0" vType="bike" speedFactor="0.86" vaporized=""/>
    <tripinfo id="SE-bike.0" depart="93.50" departLane="3_1_1" departPos="1.70" departSpeed="0.00" departDelay="0.41" arrival="158.00" arrivalLane="1_4_1" arrivalPos="184.90" arrivalSpeed="6.37" duration="64.50" routeLength="377.28" waitingTime="0.00" waitingCount="0" stopTime="0.00" timeLoss="5.21" rerouteNo="0" devices="tripinfo_SE-bike.0 ssm_SE-bike.0" vType="bike" speedFactor="1.15" vaporized=""/>
    <tripinfo id="NW_23" depart="69.00" departLane="5_1_3" departPos="5.10" departSpeed="0.00" departDelay="0.00" arrival="159.50" arrivalLane="1_2_3" arrivalPos="184.90" arrivalSpeed="11.77" duration="90.50" routeLength="378.83" waitingTime="33.00" waitingCount="2" stopTime="0.00" timeLoss="60.45" rerouteNo="0" devices="tripinfo_NW_23 ssm_NW_23" vType="cars" speedFactor="1.06" vaporized=""/>
    <tripinfo id="SN-bike.1" depart="18.50" departLane="3_1_3" departPos="1.70" departSpeed="0.00" departDelay="0.33" arrival="160.00" arrivalLane="1_5_1" arrivalPos="184.90" arrivalSpeed="4.64" duration="141.50" routeLength="398.52" waitingTime="46.50" waitingCount="1" stopTime="0.00" timeLoss="57.03" rerouteNo="0" devices="tripinfo_SN-bike.1 ssm_SN-bike.1" vType="bike" speedFactor="0.85" vaporized=""/>
    <tripinfo id="SN_33" depart="90.50" departLane="3_1_4" departPos="5.10" departSpeed="0.00" departDelay="0.50" arrival="161.00" arrivalLane="1_5_4" arrivalPos="184.90" arrivalSpeed="11.73" duration="70.50" routeLength="395.12" waitingTime="1.50" waitingCount="1" stopTime="0.00" timeLoss="40.11" rerouteNo="0" devices="tripinfo_SN_33 ssm_SN_33" vType="cars" speedFactor="0.96" vaporized=""/>
    <tripinfo id="SE_27" depart="78.00" departLane="3_1_3" departPos="5.10" departSpeed="0.00" departDelay="0.00" arrival="162.50" arrivalLane="1_4_3" arrivalPos="184.90" arrivalSpeed="12.15" duration="84.50" routeLength="378.82" waitingTime="15.50" waitingCount="3" stopTime="0.00" timeLoss="54.87" rerouteNo="0" devices="tripinfo_SE_27 ssm_SE_27" vType="cars" speedFactor="1.13" vaporized=""/>
    <tripinfo id="SN-bike.4" depart="46.50" departLane="3_1_1" departPos="1.70" departSpeed="0.00" departDelay="0.09" arrival="163.50" arrivalLane="1_5_1" arrivalPos="184.90" arrivalSpeed="4.38" duration="117.00" routeLength="398.62" waitingTime="18.00" waitingCount="1" stopTime="0.00" timeLoss="28.67" rerouteNo="0" devices="tripinfo_SN-bike.4 ssm_SN-bike.4" vType="bike" speedFactor="0.81" vaporized=""/>
    <tripinfo id="SN-bike.5" depart="62.00" departLane="3_1_4" departPos="1.70" departSpeed="0.00" departDelay="0.18" arrival="166.00" arrivalLane="1_5_1" arrivalPos="184.90" arrivalSpeed="6.52" duration="104.00" routeLength="398.52" waitingTime="25.00" waitingCount="2" stopTime="0.00" timeLoss="44.95" rerouteNo="0" devices="tripinfo_SN-bike.5 ssm_SN-bike.5" vType="bike" speedFactor="1.22" vaporized=""/>
    <personinfo id="person_EW_n.0" depart="10.50" type="DEFAULT_PEDTYPE" speedFactor="1.06" duration="158.00" waitingTime="0.00" timeLoss="8.37" traveltime="158.00">
        <walk depart="10.50" departPos="100.00" arrival="168.50" arrivalPos="92.45" duration="158.00" routeLength="221.01" timeLoss="8.37" maxSpeed="1.48"/>
    </personinfo>
    <tripinfo id="SW_43" depart="122.00" departLane="3_1_5" departPos="5.10" departSpeed="0.00" departDelay="0.00" arrival="170.50" arrivalLane="1_2_4" arrivalPos="184.90" arrivalSpeed="11.51" duration="48.50" routeLength="391.64" waitingTime="0.00" waitingCount="0" stopTime="0.00" timeLoss="18.16" rerouteNo="0" devices="tripinfo_SW_43 ssm_SW_43" vType="cars" speedFactor="1.10" vaporized=""/>
    <tripinfo id="SN-bike.7" depart="67.50" departLane="3_1_4" departPos="1.70" departSpeed="0.00" departDelay="0.46" arrival="173.00" arrivalLane="1_5_1" arrivalPos="184.90" arrivalSpeed="5.82" duration="105.50" routeLength="398.52" waitingTime="16.50" waitingCount="2" stopTime="0.00" timeLoss="37.50" rerouteNo="0" devices="tripinfo_SN-bike.7 ssm_SN-bike.7" vType="bike" speedFactor="1.06" vaporized=""/>
    <personinfo id="person_WE_s.0" depart="1.50" type="DEFAULT_PEDTYPE" speedFactor="0.98" duration="173.00" waitingTime="0.00" timeLoss="10.14" traveltime="173.00">
        <walk depart="1.50" departPos="100.00" arrival="174.50" arrivalPos="92.45" duration="173.00" routeLength="220.59" timeLoss="10.14" maxSpeed="1.35"/>
    </personinfo>