<?xml version="1.0" encoding="UTF-8"?>

<!-- generated on 2025-06-02 15:58:11 by Eclipse SUMO GUI Version 1.22.0
<sumoConfiguration xmlns:xsi="http://www.w3.org/2001/XMLSchema-instance" xsi:noNamespaceSchemaLocation="http://sumo.dlr.de/xsd/sumoConfiguration.xsd">

    <input>
        <net-file value="/home/naderian/Desktop/Shakiba/MMSVCC/environment/network_model/single_intersection_bike.net.xml"/>
        <route-files value="/home/naderian/Desktop/Shakiba/MMSVCC/environment/network_model/single_intersection.rou.xml"/>
        <additional-files value="/home/naderian/Desktop/Shakiba/MMSVCC/environment/network_model/single_intersection_Concurrent.add.xml"/>
    </input>

    <output>
        <queue-output value="/home/naderian/Desktop/Shakiba/MMSVCC/environment/simulation_data/single_intersection/queues_multi_scale_pene_100.xml"/>
        <tripinfo-output value="/home/naderian/Desktop/Shakiba/MMSVCC/environment/simulation_data/single_intersection/tripinfo_multi_scale_pene_100.xml"/>
    </output>

    <time>
        <begin value="0"/>
        <step-length value="0.5"/>
    </time>

    <processing>
        <lateral-resolution value="0.3"/>
        <waiting-time-memory value="1000"/>
    </processing>

    <report>
        <verbose value="true"/>
        <no-step-log value="true"/>
    </report>

    <ssm_device>
        <device.ssm.file value="/home/naderian/Desktop/Shakiba/MMSVCC/environment/simulation_data/single_intersection/SSMinfo_multi_scale_pene_100.xml"/>
    </ssm_device>

    <traci_server>
        <remote-port value="45953"/>
    </traci_server>

    <gui_only>
        <start value="true"/>
    </gui_only>

</sumoConfiguration>
-->

<tripinfos xmlns:xsi="http://www.w3.org/2001/XMLSchema-instance" xsi:noNamespaceSchemaLocation="http://sumo.dlr.de/xsd/tripinfo_file.xsd">
    <tripinfo id="SN_0" depart="0.00" departLane="3_1_3" departPos="5.10" departPosLat="0.00" departSpeed="0.00" departDelay="0.00" arrival="35.00" arrivalLane="1_5_2" arrivalPos="185.90" arrivalPosLat="0.00" arrivalSpeed="13.00" duration="35.00" routeLength="395.14" waitingTime="0.00" waitingCount="0" stopTime="0.00" timeLoss="4.21" rerouteNo="0" devices="tripinfo_SN_0 ssm_SN_0" vType="cars" speedFactor="1.02" vaporized=""/>
    <tripinfo id="NS_1" depart="1.00" departLane="5_1_3" departPos="5.10" departPosLat="0.00" departSpeed="0.00" departDelay="0.00" arrival="37.00" arrivalLane="1_3_2" arrivalPos="185.90" arrivalPosLat="0.00" arrivalSpeed="13.00" duration="36.00" routeLength="395.14" waitingTime="0.00" waitingCount="0" stopTime="0.00" timeLoss="5.30" rerouteNo="0" devices="tripinfo_NS_1 ssm_NS_1" vType="cars" speedFactor="1.01" vaporized=""/>
    <tripinfo id="SN_2" depart="5.00" departLane="3_1_3" departPos="5.10" departPosLat="0.00" departSpeed="0.00" departDelay="0.00" arrival="41.50" arrivalLane="1_5_2" arrivalPos="185.90" arrivalPosLat="0.00" arrivalSpeed="13.00" duration="36.50" routeLength="395.14" waitingTime="0.00" waitingCount="0" stopTime="0.00" timeLoss="5.80" rerouteNo="0" devices="tripinfo_SN_2 ssm_SN_2" vType="cars" speedFactor="1.05" vaporized=""/>
    <tripinfo id="SE_4" depart="9.00" departLane="3_1_2" departPos="5.10" departPosLat="0.00" departSpeed="0.00" departDelay="0.00" arrival="44.50" arrivalLane="1_4_2" arrivalPos="185.90" arrivalPosLat="0.00" arrivalSpeed="13.00" duration="35.50" routeLength="379.23" waitingTime="0.00" waitingCount="0" stopTime="0.00" timeLoss="5.32" rerouteNo="0" devices="tripinfo_SE_4 ssm_SE_4" vType="cars" speedFactor="0.94" vaporized=""/>
    <tripinfo id="NS_5" depart="11.00" departLane="5_1_3" departPos="5.10" departPosLat="0.00" departSpeed="0.00" departDelay="0.00" arrival="47.00" arrivalLane="1_3_2" arrivalPos="185.90" arrivalPosLat="0.00" arrivalSpeed="13.00" duration="36.00" routeLength="395.14" waitingTime="0.00" waitingCount="0" stopTime="0.00" timeLoss="5.26" rerouteNo="0" devices="tripinfo_NS_5 ssm_NS_5" vType="cars" speedFactor="0.91" vaporized=""/>
    <tripinfo id="NS_8" depart="17.00" departLane="5_1_3" departPos="5.10" departPosLat="0.00" departSpeed="0.00" departDelay="0.00" arrival="52.50" arrivalLane="1_3_2" arrivalPos="185.90" arrivalPosLat="0.00" arrivalSpeed="13.00" duration="35.50" routeLength="395.14" waitingTime="0.00" waitingCount="0" stopTime="0.00" timeLoss="5.08" rerouteNo="0" devices="tripinfo_NS_8 ssm_NS_8" vType="cars" speedFactor="0.95" vaporized=""/>
    <tripinfo id="SN_9" depart="18.00" departLane="3_1_3" departPos="5.10" departPosLat="0.00" departSpeed="0.00" departDelay="0.00" arrival="53.50" arrivalLane="1_5_2" arrivalPos="185.90" arrivalPosLat="0.00" arrivalSpeed="13.00" duration="35.50" routeLength="395.14" waitingTime="0.00" waitingCount="0" stopTime="0.00" timeLoss="4.71" rerouteNo="0" devices="tripinfo_SN_9 ssm_SN_9" vType="cars" speedFactor="0.76" vaporized=""/>
</tripinfos>
