<?xml version="1.0" encoding="UTF-8"?>

<!-- generated on 2025-03-14 13:04:57 by Eclipse SUMO GUI Version 1.20.0
<configuration xmlns:xsi="http://www.w3.org/2001/XMLSchema-instance" xsi:noNamespaceSchemaLocation="http://sumo.dlr.de/xsd/sumoConfiguration.xsd">

    <input>
        <net-file value="/home/naderian/Desktop/Shakiba/MMSVCC/environment/network_model/single_intersection_pedestrian_X.net.xml"/>
        <route-files value="/home/naderian/Desktop/Shakiba/MMSVCC/environment/network_model/single_intersection.rou.xml"/>
        <additional-files value="/home/naderian/Desktop/Shakiba/MMSVCC/environment/network_model/single_intersection.add_fixed_time.xml"/>
    </input>

    <output>
        <queue-output value="/home/naderian/Desktop/Shakiba/MMSVCC/environment/simulation_data/single_intersection/queues_fixed_time_symmetric_pene_100.xml"/>
        <tripinfo-output value="/home/naderian/Desktop/Shakiba/MMSVCC/environment/simulation_data/single_intersection/tripinfo_fixed_time_symmetric_pene_100.xml"/>
    </output>

    <time>
        <begin value="0"/>
        <step-length value="0.5"/>
    </time>

    <processing>
        <waiting-time-memory value="1000"/>
    </processing>

    <report>
        <verbose value="true"/>
        <no-step-log value="true"/>
    </report>

    <traci_server>
        <remote-port value="47839"/>
    </traci_server>

    <gui_only>
        <start value="true"/>
    </gui_only>

</configuration>
-->

<tripinfos xmlns:xsi="http://www.w3.org/2001/XMLSchema-instance" xsi:noNamespaceSchemaLocation="http://sumo.dlr.de/xsd/tripinfo_file.xsd">
    <tripinfo id="SN_0" depart="0.00" departLane="3_1_2" departPos="5.10" departSpeed="0.00" departDelay="0.00" arrival="35.50" arrivalLane="1_5_1" arrivalPos="186.40" arrivalSpeed="11.82" duration="35.50" routeLength="395.15" waitingTime="0.00" waitingCount="0" stopTime="0.00" timeLoss="4.91" rerouteNo="0" devices="tripinfo_SN_0" vType="cars" speedFactor="1.04" vaporized=""/>
    <tripinfo id="NS_1" depart="1.00" departLane="5_1_2" departPos="5.10" departSpeed="0.00" departDelay="0.00" arrival="38.00" arrivalLane="1_3_1" arrivalPos="186.40" arrivalSpeed="12.76" duration="37.00" routeLength="395.15" waitingTime="0.00" waitingCount="0" stopTime="0.00" timeLoss="6.18" rerouteNo="0" devices="tripinfo_NS_1" vType="cars" speedFactor="0.95" vaporized=""/>
    <tripinfo id="SN_2" depart="5.00" departLane="3_1_2" departPos="5.10" departSpeed="0.00" departDelay="0.00" arrival="40.00" arrivalLane="1_5_1" arrivalPos="186.40" arrivalSpeed="11.68" duration="35.00" routeLength="395.15" waitingTime="0.00" waitingCount="0" stopTime="0.00" timeLoss="4.52" rerouteNo="0" devices="tripinfo_SN_2" vType="cars" speedFactor="0.85" vaporized=""/>
    <tripinfo id="SE_4" depart="9.00" departLane="3_1_1" departPos="5.10" departSpeed="0.00" departDelay="0.00" arrival="46.00" arrivalLane="1_4_1" arrivalPos="186.40" arrivalSpeed="11.81" duration="37.00" routeLength="379.42" waitingTime="0.00" waitingCount="0" stopTime="0.00" timeLoss="7.04" rerouteNo="0" devices="tripinfo_SE_4" vType="cars" speedFactor="1.10" vaporized=""/>
    <tripinfo id="NS_5" depart="11.00" departLane="5_1_2" departPos="5.10" departSpeed="0.00" departDelay="0.00" arrival="48.00" arrivalLane="1_3_1" arrivalPos="186.40" arrivalSpeed="11.64" duration="37.00" routeLength="395.15" waitingTime="0.00" waitingCount="0" stopTime="0.00" timeLoss="6.25" rerouteNo="0" devices="tripinfo_NS_5" vType="cars" speedFactor="1.17" vaporized=""/>
    <tripinfo id="EN_10" depart="20.00" departLane="4_1_1" departPos="5.10" departSpeed="0.00" departDelay="0.00" arrival="58.50" arrivalLane="1_5_1" arrivalPos="186.40" arrivalSpeed="12.63" duration="38.50" routeLength="379.42" waitingTime="0.00" waitingCount="0" stopTime="0.00" timeLoss="8.56" rerouteNo="0" devices="tripinfo_EN_10" vType="cars" speedFactor="0.98" vaporized=""/>
    <tripinfo id="WE_1" depart="12.00" departLane="2_1_2" departPos="5.10" departSpeed="0.00" departDelay="0.00" arrival="73.50" arrivalLane="1_4_1" arrivalPos="186.40" arrivalSpeed="12.62" duration="61.50" routeLength="395.15" waitingTime="22.00" waitingCount="1" stopTime="0.00" timeLoss="30.82" rerouteNo="0" devices="tripinfo_WE_1" vType="cars" speedFactor="1.12" vaporized=""/>
    <tripinfo id="EW_0" depart="22.00" departLane="4_1_2" departPos="5.10" departSpeed="0.00" departDelay="0.00" arrival="73.50" arrivalLane="1_2_1" arrivalPos="186.40" arrivalSpeed="12.75" duration="51.50" routeLength="395.15" waitingTime="12.00" waitingCount="1" stopTime="0.00" timeLoss="20.73" rerouteNo="0" devices="tripinfo_EW_0" vType="cars" speedFactor="0.96" vaporized=""/>
    <tripinfo id="WE_0" depart="1.00" departLane="2_1_2" departPos="5.10" departSpeed="0.00" departDelay="0.00" arrival="75.50" arrivalLane="1_4_1" arrivalPos="186.40" arrivalSpeed="11.75" duration="74.50" routeLength="395.15" waitingTime="33.00" waitingCount="1" stopTime="0.00" timeLoss="44.02" rerouteNo="0" devices="tripinfo_WE_0" vType="cars" speedFactor="0.86" vaporized=""/>
    <tripinfo id="WS_3" depart="7.00" departLane="2_1_1" departPos="5.10" departSpeed="0.00" departDelay="0.00" arrival="76.00" arrivalLane="1_3_1" arrivalPos="186.40" arrivalSpeed="12.81" duration="69.00" routeLength="379.43" waitingTime="25.00" waitingCount="2" stopTime="0.00" timeLoss="38.46" rerouteNo="0" devices="tripinfo_WS_3" vType="cars" speedFactor="0.93" vaporized=""/>
    <tripinfo id="WE_2" depart="22.00" departLane="2_1_2" departPos="5.10" departSpeed="0.00" departDelay="0.00" arrival="76.50" arrivalLane="1_4_2" arrivalPos="186.40" arrivalSpeed="12.64" duration="54.50" routeLength="395.15" waitingTime="10.00" waitingCount="1" stopTime="0.00" timeLoss="23.67" rerouteNo="0" devices="tripinfo_WE_2" vType="cars" speedFactor="1.17" vaporized=""/>
    <tripinfo id="WE_3" depart="27.00" departLane="2_1_2" departPos="5.10" departSpeed="0.00" departDelay="0.00" arrival="78.50" arrivalLane="1_4_2" arrivalPos="186.40" arrivalSpeed="11.55" duration="51.50" routeLength="395.15" waitingTime="7.00" waitingCount="1" stopTime="0.00" timeLoss="20.93" rerouteNo="0" devices="tripinfo_WE_3" vType="cars" speedFactor="1.02" vaporized=""/>
    <tripinfo id="WS_6" depart="14.00" departLane="2_1_1" departPos="5.10" departSpeed="0.00" departDelay="0.00" arrival="79.00" arrivalLane="1_3_1" arrivalPos="186.40" arrivalSpeed="12.08" duration="65.00" routeLength="379.43" waitingTime="19.00" waitingCount="1" stopTime="0.00" timeLoss="35.04" rerouteNo="0" devices="tripinfo_WS_6" vType="cars" speedFactor="1.02" vaporized=""/>
    <tripinfo id="EW_1" depart="42.00" departLane="4_1_2" departPos="5.10" departSpeed="0.00" departDelay="0.00" arrival="79.00" arrivalLane="1_2_1" arrivalPos="186.40" arrivalSpeed="11.73" duration="37.00" routeLength="395.15" waitingTime="0.00" waitingCount="0" stopTime="0.00" timeLoss="6.53" rerouteNo="0" devices="tripinfo_EW_1" vType="cars" speedFactor="1.13" vaporized=""/>
    <tripinfo id="EW_2" depart="46.00" departLane="4_1_2" departPos="5.10" departSpeed="0.00" departDelay="0.00" arrival="81.00" arrivalLane="1_2_1" arrivalPos="186.40" arrivalSpeed="12.33" duration="35.00" routeLength="395.15" waitingTime="0.00" waitingCount="0" stopTime="0.00" timeLoss="4.40" rerouteNo="0" devices="tripinfo_EW_2" vType="cars" speedFactor="0.95" vaporized=""/>
    <tripinfo id="WE_4" depart="50.00" departLane="2_1_2" departPos="5.10" departSpeed="0.00" departDelay="0.00" arrival="86.00" arrivalLane="1_4_1" arrivalPos="186.40" arrivalSpeed="12.99" duration="36.00" routeLength="395.15" waitingTime="0.00" waitingCount="0" stopTime="0.00" timeLoss="5.12" rerouteNo="0" devices="tripinfo_WE_4" vType="cars" speedFactor="0.99" vaporized=""/>
    <tripinfo id="EW_3" depart="59.00" departLane="4_1_2" departPos="5.10" departSpeed="0.00" departDelay="0.00" arrival="95.00" arrivalLane="1_2_1" arrivalPos="186.40" arrivalSpeed="12.39" duration="36.00" routeLength="395.15" waitingTime="0.00" waitingCount="0" stopTime="0.00" timeLoss="5.25" rerouteNo="0" devices="tripinfo_EW_3" vType="cars" speedFactor="0.83" vaporized=""/>
    <tripinfo id="EW_4" depart="62.00" departLane="4_1_2" departPos="5.10" departSpeed="0.00" departDelay="0.00" arrival="99.00" arrivalLane="1_2_1" arrivalPos="186.40" arrivalSpeed="11.89" duration="37.00" routeLength="395.15" waitingTime="0.00" waitingCount="0" stopTime="0.00" timeLoss="6.49" rerouteNo="0" devices="tripinfo_EW_4" vType="cars" speedFactor="0.98" vaporized=""/>
    <tripinfo id="WN_7" depart="16.00" departLane="2_1_3" departPos="5.10" departSpeed="0.00" departDelay="0.00" arrival="111.50" arrivalLane="1_5_2" arrivalPos="186.40" arrivalSpeed="12.41" duration="95.50" routeLength="392.22" waitingTime="54.00" waitingCount="1" stopTime="0.00" timeLoss="64.34" rerouteNo="0" devices="tripinfo_WN_7" vType="cars" speedFactor="0.90" vaporized=""/>
    <tripinfo id="ES_24" depart="73.00" departLane="4_1_3" departPos="5.10" departSpeed="0.00" departDelay="0.00" arrival="111.50" arrivalLane="1_3_2" arrivalPos="186.40" arrivalSpeed="12.87" duration="38.50" routeLength="392.22" waitingTime="0.00" waitingCount="0" stopTime="0.00" timeLoss="7.13" rerouteNo="0" devices="tripinfo_ES_24" vType="cars" speedFactor="0.86" vaporized=""/>
    <tripinfo id="SN_9" depart="18.00" departLane="3_1_2" departPos="5.10" departSpeed="0.00" departDelay="0.00" arrival="128.50" arrivalLane="1_5_1" arrivalPos="186.40" arrivalSpeed="12.95" duration="110.50" routeLength="395.15" waitingTime="70.00" waitingCount="1" stopTime="0.00" timeLoss="80.06" rerouteNo="0" devices="tripinfo_SN_9" vType="cars" speedFactor="1.04" vaporized=""/>
    <tripinfo id="NS_8" depart="17.00" departLane="5_1_2" departPos="5.10" departSpeed="0.00" departDelay="0.00" arrival="129.00" arrivalLane="1_3_1" arrivalPos="186.40" arrivalSpeed="12.79" duration="112.00" routeLength="395.15" waitingTime="70.00" waitingCount="1" stopTime="0.00" timeLoss="81.23" rerouteNo="0" devices="tripinfo_NS_8" vType="cars" speedFactor="1.01" vaporized=""/>
    <tripinfo id="NS_11" depart="20.00" departLane="5_1_2" departPos="5.10" departSpeed="0.00" departDelay="0.00" arrival="129.50" arrivalLane="1_3_2" arrivalPos="186.40" arrivalSpeed="12.28" duration="109.50" routeLength="395.15" waitingTime="67.00" waitingCount="1" stopTime="0.00" timeLoss="79.10" rerouteNo="0" devices="tripinfo_NS_11" vType="cars" speedFactor="1.00" vaporized=""/>
    <tripinfo id="SN_12" depart="25.00" departLane="3_1_2" departPos="5.10" departSpeed="0.00" departDelay="0.00" arrival="129.50" arrivalLane="1_5_1" arrivalPos="186.40" arrivalSpeed="12.90" duration="104.50" routeLength="395.15" waitingTime="62.50" waitingCount="1" stopTime="0.00" timeLoss="73.68" rerouteNo="0" devices="tripinfo_SN_12" vType="cars" speedFactor="0.97" vaporized=""/>
    <tripinfo id="NS_13" depart="26.00" departLane="5_1_2" departPos="5.10" departSpeed="0.00" departDelay="0.00" arrival="130.50" arrivalLane="1_3_1" arrivalPos="186.40" arrivalSpeed="12.92" duration="104.50" routeLength="395.15" waitingTime="60.50" waitingCount="1" stopTime="0.00" timeLoss="73.98" rerouteNo="0" devices="tripinfo_NS_13" vType="cars" speedFactor="0.89" vaporized=""/>
    <tripinfo id="SN_15" depart="29.00" departLane="3_1_2" departPos="5.10" departSpeed="0.00" departDelay="0.00" arrival="131.00" arrivalLane="1_5_1" arrivalPos="186.40" arrivalSpeed="11.78" duration="102.00" routeLength="395.15" waitingTime="58.50" waitingCount="1" stopTime="0.00" timeLoss="71.49" rerouteNo="0" devices="tripinfo_SN_15" vType="cars" speedFactor="0.90" vaporized=""/>
    <tripinfo id="SN_18" depart="36.00" departLane="3_1_2" departPos="5.10" departSpeed="0.00" departDelay="0.00" arrival="131.00" arrivalLane="1_5_2" arrivalPos="186.40" arrivalSpeed="12.70" duration="95.00" routeLength="395.15" waitingTime="49.50" waitingCount="1" stopTime="0.00" timeLoss="64.43" rerouteNo="0" devices="tripinfo_SN_18" vType="cars" speedFactor="0.96" vaporized=""/>
    <tripinfo id="NS_14" depart="29.00" departLane="5_1_2" departPos="5.10" departSpeed="0.00" departDelay="2.00" arrival="132.00" arrivalLane="1_3_2" arrivalPos="186.40" arrivalSpeed="12.44" duration="103.00" routeLength="395.15" waitingTime="56.50" waitingCount="1" stopTime="0.00" timeLoss="72.20" rerouteNo="0" devices="tripinfo_NS_14" vType="cars" speedFactor="0.84" vaporized=""/>
    <tripinfo id="NS_16" depart="32.00" departLane="5_1_2" departPos="5.10" departSpeed="0.00" departDelay="2.00" arrival="132.50" arrivalLane="1_3_1" arrivalPos="186.40" arrivalSpeed="12.68" duration="100.50" routeLength="395.15" waitingTime="54.50" waitingCount="1" stopTime="0.00" timeLoss="69.89" rerouteNo="0" devices="tripinfo_NS_16" vType="cars" speedFactor="1.13" vaporized=""/>
    <tripinfo id="SN_17" depart="33.00" departLane="3_1_2" departPos="5.10" departSpeed="0.00" departDelay="0.00" arrival="133.00" arrivalLane="1_5_1" arrivalPos="186.40" arrivalSpeed="12.67" duration="100.00" routeLength="395.15" waitingTime="53.00" waitingCount="1" stopTime="0.00" timeLoss="69.51" rerouteNo="0" devices="tripinfo_SN_17" vType="cars" speedFactor="1.00" vaporized=""/>
    <tripinfo id="SN_20" depart="40.00" departLane="3_1_2" departPos="5.10" departSpeed="0.00" departDelay="0.00" arrival="133.00" arrivalLane="1_5_2" arrivalPos="186.40" arrivalSpeed="12.35" duration="93.00" routeLength="395.15" waitingTime="46.50" waitingCount="1" stopTime="0.00" timeLoss="62.45" rerouteNo="0" devices="tripinfo_SN_20" vType="cars" speedFactor="0.93" vaporized=""/>
    <tripinfo id="NS_22" depart="66.00" departLane="5_1_2" departPos="5.10" departSpeed="0.00" departDelay="0.00" arrival="133.50" arrivalLane="1_3_2" arrivalPos="186.40" arrivalSpeed="11.62" duration="67.50" routeLength="395.15" waitingTime="21.00" waitingCount="1" stopTime="0.00" timeLoss="37.10" rerouteNo="0" devices="tripinfo_NS_22" vType="cars" speedFactor="0.93" vaporized=""/>
    <tripinfo id="SN_25" depart="74.00" departLane="3_1_2" departPos="5.10" departSpeed="0.00" departDelay="0.00" arrival="135.00" arrivalLane="1_5_2" arrivalPos="186.40" arrivalSpeed="12.70" duration="61.00" routeLength="395.15" waitingTime="13.00" waitingCount="1" stopTime="0.00" timeLoss="30.28" rerouteNo="0" devices="tripinfo_SN_25" vType="cars" speedFactor="0.86" vaporized=""/>
    <tripinfo id="NS_26" depart="75.00" departLane="5_1_2" departPos="5.10" departSpeed="0.00" departDelay="0.00" arrival="135.50" arrivalLane="1_3_2" arrivalPos="186.40" arrivalSpeed="11.93" duration="60.50" routeLength="395.15" waitingTime="12.50" waitingCount="1" stopTime="0.00" timeLoss="29.82" rerouteNo="0" devices="tripinfo_NS_26" vType="cars" speedFactor="1.03" vaporized=""/>
    <tripinfo id="NW_21" depart="53.00" departLane="5_1_1" departPos="5.10" departSpeed="0.00" departDelay="0.00" arrival="137.00" arrivalLane="1_2_1" arrivalPos="186.40" arrivalSpeed="11.76" duration="84.00" routeLength="379.43" waitingTime="35.50" waitingCount="2" stopTime="0.00" timeLoss="53.92" rerouteNo="0" devices="tripinfo_NW_21" vType="cars" speedFactor="1.00" vaporized=""/>
    <tripinfo id="SN_28" depart="81.00" departLane="3_1_2" departPos="5.10" departSpeed="0.00" departDelay="0.00" arrival="137.00" arrivalLane="1_5_2" arrivalPos="186.40" arrivalSpeed="12.12" duration="56.00" routeLength="395.15" waitingTime="9.00" waitingCount="1" stopTime="0.00" timeLoss="25.17" rerouteNo="0" devices="tripinfo_SN_28" vType="cars" speedFactor="0.97" vaporized=""/>
    <tripinfo id="NS_29" depart="83.00" departLane="5_1_2" departPos="5.10" departSpeed="0.00" departDelay="0.00" arrival="137.50" arrivalLane="1_3_2" arrivalPos="186.40" arrivalSpeed="11.71" duration="54.50" routeLength="395.15" waitingTime="7.00" waitingCount="1" stopTime="0.00" timeLoss="23.70" rerouteNo="0" devices="tripinfo_NS_29" vType="cars" speedFactor="1.02" vaporized=""/>
    <tripinfo id="NW_23" depart="69.00" departLane="5_1_1" departPos="5.10" departSpeed="0.00" departDelay="0.00" arrival="139.00" arrivalLane="1_2_1" arrivalPos="186.40" arrivalSpeed="11.98" duration="70.00" routeLength="379.43" waitingTime="22.00" waitingCount="1" stopTime="0.00" timeLoss="40.08" rerouteNo="0" devices="tripinfo_NW_23" vType="cars" speedFactor="1.07" vaporized=""/>
    <tripinfo id="SN_31" depart="86.50" departLane="3_1_2" departPos="5.10" departSpeed="0.00" departDelay="2.50" arrival="139.00" arrivalLane="1_5_2" arrivalPos="186.40" arrivalSpeed="12.66" duration="52.50" routeLength="395.15" waitingTime="3.50" waitingCount="2" stopTime="0.00" timeLoss="21.77" rerouteNo="0" devices="tripinfo_SN_31" vType="cars" speedFactor="0.98" vaporized=""/>
    <tripinfo id="NS_37" depart="105.00" departLane="5_1_2" departPos="5.10" departSpeed="0.00" departDelay="0.00" arrival="140.00" arrivalLane="1_3_1" arrivalPos="186.40" arrivalSpeed="11.59" duration="35.00" routeLength="395.15" waitingTime="0.00" waitingCount="0" stopTime="0.00" timeLoss="4.39" rerouteNo="0" devices="tripinfo_NS_37" vType="cars" speedFactor="1.01" vaporized=""/>
    <tripinfo id="SN_34" depart="97.00" departLane="3_1_2" departPos="5.10" departSpeed="0.00" departDelay="0.00" arrival="140.50" arrivalLane="1_5_2" arrivalPos="186.40" arrivalSpeed="11.81" duration="43.50" routeLength="395.15" waitingTime="0.00" waitingCount="0" stopTime="0.00" timeLoss="13.03" rerouteNo="0" devices="tripinfo_SN_34" vType="cars" speedFactor="1.12" vaporized=""/>
    <tripinfo id="NS_32" depart="87.00" departLane="5_1_2" departPos="5.10" departSpeed="0.00" departDelay="0.00" arrival="142.50" arrivalLane="1_3_1" arrivalPos="186.40" arrivalSpeed="12.84" duration="55.50" routeLength="395.15" waitingTime="3.50" waitingCount="1" stopTime="0.00" timeLoss="24.86" rerouteNo="0" devices="tripinfo_NS_32" vType="cars" speedFactor="0.93" vaporized=""/>
    <tripinfo id="SN_38" depart="107.00" departLane="3_1_2" departPos="5.10" departSpeed="0.00" departDelay="0.00" arrival="142.50" arrivalLane="1_5_1" arrivalPos="186.40" arrivalSpeed="11.85" duration="35.50" routeLength="395.15" waitingTime="0.00" waitingCount="0" stopTime="0.00" timeLoss="4.90" rerouteNo="0" devices="tripinfo_SN_38" vType="cars" speedFactor="0.93" vaporized=""/>
    <tripinfo id="NW_36" depart="101.00" departLane="5_1_1" departPos="5.10" departSpeed="0.00" departDelay="0.00" arrival="143.00" arrivalLane="1_2_1" arrivalPos="186.40" arrivalSpeed="12.81" duration="42.00" routeLength="379.43" waitingTime="0.00" waitingCount="0" stopTime="0.00" timeLoss="12.02" rerouteNo="0" devices="tripinfo_NW_36" vType="cars" speedFactor="1.09" vaporized=""/>
    <tripinfo id="SN_33" depart="90.00" departLane="3_1_2" departPos="5.10" departSpeed="0.00" departDelay="0.00" arrival="147.00" arrivalLane="1_5_2" arrivalPos="186.40" arrivalSpeed="12.61" duration="57.00" routeLength="395.15" waitingTime="0.00" waitingCount="0" stopTime="0.00" timeLoss="26.33" rerouteNo="0" devices="tripinfo_SN_33" vType="cars" speedFactor="0.98" vaporized=""/>
    <tripinfo id="SE_19" depart="39.00" departLane="3_1_1" departPos="5.10" departSpeed="0.00" departDelay="0.00" arrival="148.50" arrivalLane="1_4_1" arrivalPos="186.40" arrivalSpeed="12.43" duration="109.50" routeLength="379.42" waitingTime="62.00" waitingCount="3" stopTime="0.00" timeLoss="79.14" rerouteNo="0" devices="tripinfo_SE_19" vType="cars" speedFactor="0.99" vaporized=""/>
    <tripinfo id="SN_40" depart="110.00" departLane="3_1_2" departPos="5.10" departSpeed="0.00" departDelay="0.00" arrival="148.50" arrivalLane="1_5_1" arrivalPos="186.40" arrivalSpeed="11.82" duration="38.50" routeLength="395.15" waitingTime="0.00" waitingCount="0" stopTime="0.00" timeLoss="8.07" rerouteNo="0" devices="tripinfo_SN_40" vType="cars" speedFactor="1.06" vaporized=""/>
    <tripinfo id="NS_41" depart="111.00" departLane="5_1_2" departPos="5.10" departSpeed="0.00" departDelay="0.00" arrival="148.50" arrivalLane="1_3_1" arrivalPos="186.40" arrivalSpeed="12.91" duration="37.50" routeLength="395.15" waitingTime="0.00" waitingCount="0" stopTime="0.00" timeLoss="6.74" rerouteNo="0" devices="tripinfo_NS_41" vType="cars" speedFactor="1.06" vaporized=""/>
    <tripinfo id="SN_30" depart="83.50" departLane="3_1_2" departPos="5.10" departSpeed="0.00" departDelay="0.50" arrival="153.00" arrivalLane="1_5_2" arrivalPos="186.40" arrivalSpeed="12.31" duration="69.50" routeLength="395.15" waitingTime="13.00" waitingCount="2" stopTime="0.00" timeLoss="38.78" rerouteNo="0" devices="tripinfo_SN_30" vType="cars" speedFactor="0.97" vaporized=""/>
    <tripinfo id="SE_27" depart="78.00" departLane="3_1_1" departPos="5.10" departSpeed="0.00" departDelay="0.00" arrival="163.00" arrivalLane="1_4_1" arrivalPos="186.40" arrivalSpeed="12.90" duration="85.00" routeLength="379.42" waitingTime="28.00" waitingCount="3" stopTime="0.00" timeLoss="54.94" rerouteNo="0" devices="tripinfo_SE_27" vType="cars" speedFactor="0.90" vaporized=""/>
    <tripinfo id="SW_43" depart="122.00" departLane="3_1_3" departPos="5.10" departSpeed="0.00" departDelay="0.00" arrival="166.00" arrivalLane="1_2_2" arrivalPos="186.40" arrivalSpeed="12.15" duration="44.00" routeLength="392.22" waitingTime="2.00" waitingCount="1" stopTime="0.00" timeLoss="13.26" rerouteNo="0" devices="tripinfo_SW_43" vType="cars" speedFactor="1.00" vaporized=""/>
    <personinfo id="person_WE_s.0" depart="1.92" type="DEFAULT_PEDTYPE" speedFactor="0.98" duration="173.00" waitingTime="0.00" timeLoss="9.71" traveltime="173.00">
        <walk depart="2.00" departPos="100.00" arrival="175.00" arrivalPos="93.20" duration="173.00" routeLength="221.17" timeLoss="9.71" maxSpeed="1.35"/>
    </personinfo>
    <tripinfo id="WE_6" depart="78.00" departLane="2_1_2" departPos="5.10" departSpeed="0.00" departDelay="1.00" arrival="182.00" arrivalLane="1_4_1" arrivalPos="186.40" arrivalSpeed="11.89" duration="104.00" routeLength="395.15" waitingTime="62.50" waitingCount="1" stopTime="0.00" timeLoss="73.60" rerouteNo="0" devices="tripinfo_WE_6" vType="cars" speedFactor="0.93" vaporized=""/>
    <tripinfo id="EW_6" depart="92.00" departLane="4_1_2" departPos="5.10" departSpeed="0.00" departDelay="0.00" arrival="182.00" arrivalLane="1_2_2" arrivalPos="186.40" arrivalSpeed="11.80" duration="90.00" routeLength="395.15" waitingTime="49.00" waitingCount="1" stopTime="0.00" timeLoss="59.18" rerouteNo="0" devices="tripinfo_EW_6" vType="cars" speedFactor="1.07" vaporized=""/>
    <tripinfo id="EW_5" depart="76.00" departLane="4_1_2" departPos="5.10" departSpeed="0.00" departDelay="0.00" arrival="183.00" arrivalLane="1_2_1" arrivalPos="186.40" arrivalSpeed="12.97" duration="107.00" routeLength="395.15" waitingTime="65.00" waitingCount="1" stopTime="0.00" timeLoss="76.15" rerouteNo="0" devices="tripinfo_EW_5" vType="cars" speedFactor="1.06" vaporized=""/>
    <personinfo id="person_SW_diag.0" depart="13.61" type="DEFAULT_PEDTYPE" speedFactor="1.17" duration="170.00" waitingTime="0.00" timeLoss="32.16" traveltime="170.00">
        <walk depart="14.00" departPos="100.00" arrival="184.00" arrivalPos="93.20" duration="170.00" routeLength="223.30" timeLoss="32.16" maxSpeed="1.62"/>
    </personinfo>
    <personinfo id="person_ES_diag.0" depart="6.72" type="DEFAULT_PEDTYPE" speedFactor="1.22" duration="177.00" waitingTime="0.00" timeLoss="39.69" traveltime="177.00">
        <walk depart="7.00" departPos="100.00" arrival="184.00" arrivalPos="93.20" duration="177.00" routeLength="233.56" timeLoss="39.69" maxSpeed="1.70"/>
    </personinfo>
    <tripinfo id="WE_5" depart="75.00" departLane="2_1_2" departPos="5.10" departSpeed="0.00" departDelay="0.00" arrival="184.00" arrivalLane="1_4_1" arrivalPos="186.40" arrivalSpeed="11.63" duration="109.00" routeLength="395.15" waitingTime="66.50" waitingCount="1" stopTime="0.00" timeLoss="78.47" rerouteNo="0" devices="tripinfo_WE_5" vType="cars" speedFactor="1.24" vaporized=""/>
    <tripinfo id="WE_8" depart="92.00" departLane="2_1_2" departPos="5.10" departSpeed="0.00" departDelay="0.00" arrival="184.00" arrivalLane="1_4_2" arrivalPos="186.40" arrivalSpeed="12.44" duration="92.00" routeLength="395.15" waitingTime="48.50" waitingCount="1" stopTime="0.00" timeLoss="61.22" rerouteNo="0" devices="tripinfo_WE_8" vType="cars" speedFactor="0.92" vaporized=""/>
    <tripinfo id="EW_7" depart="111.00" departLane="4_1_2" departPos="5.10" departSpeed="0.00" departDelay="0.00" arrival="184.50" arrivalLane="1_2_2" arrivalPos="186.40" arrivalSpeed="11.54" duration="73.50" routeLength="395.15" waitingTime="30.00" waitingCount="1" stopTime="0.00" timeLoss="42.93" rerouteNo="0" devices="tripinfo_EW_7" vType="cars" speedFactor="1.25" vaporized=""/>
    <tripinfo id="WE_7" depart="89.00" departLane="2_1_2" departPos="5.10" departSpeed="0.00" departDelay="0.00" arrival="186.00" arrivalLane="1_4_1" arrivalPos="186.40" arrivalSpeed="12.72" duration="97.00" routeLength="395.15" waitingTime="51.00" waitingCount="1" stopTime="0.00" timeLoss="66.28" rerouteNo="0" devices="tripinfo_WE_7" vType="cars" speedFactor="0.95" vaporized=""/>
    <tripinfo id="EW_8" depart="123.00" departLane="4_1_2" departPos="5.10" departSpeed="0.00" departDelay="0.00" arrival="186.00" arrivalLane="1_2_1" arrivalPos="186.40" arrivalSpeed="12.41" duration="63.00" routeLength="395.15" waitingTime="17.00" waitingCount="1" stopTime="0.00" timeLoss="32.56" rerouteNo="0" devices="tripinfo_EW_8" vType="cars" speedFactor="0.99" vaporized=""/>
    <tripinfo id="WE_9" depart="106.00" departLane="2_1_2" departPos="5.10" departSpeed="0.00" departDelay="0.00" arrival="187.50" arrivalLane="1_4_2" arrivalPos="186.40" arrivalSpeed="11.70" duration="81.50" routeLength="395.15" waitingTime="34.50" waitingCount="1" stopTime="0.00" timeLoss="50.67" rerouteNo="0" devices="tripinfo_WE_9" vType="cars" speedFactor="0.95" vaporized=""/>
    <tripinfo id="WE_10" depart="116.00" departLane="2_1_2" departPos="5.10" departSpeed="0.00" departDelay="0.00" arrival="188.00" arrivalLane="1_4_1" arrivalPos="186.40" arrivalSpeed="11.74" duration="72.00" routeLength="395.15" waitingTime="20.50" waitingCount="1" stopTime="0.00" timeLoss="41.46" rerouteNo="0" devices="tripinfo_WE_10" vType="cars" speedFactor="1.05" vaporized=""/>
    <tripinfo id="EW_10" depart="144.00" departLane="4_1_2" departPos="5.10" departSpeed="0.00" departDelay="0.00" arrival="188.50" arrivalLane="1_2_1" arrivalPos="186.40" arrivalSpeed="12.06" duration="44.50" routeLength="395.15" waitingTime="0.00" waitingCount="0" stopTime="0.00" timeLoss="13.91" rerouteNo="0" devices="tripinfo_EW_10" vType="cars" speedFactor="0.96" vaporized=""/>
    <personinfo id="person_SN_e.0" depart="18.06" type="DEFAULT_PEDTYPE" speedFactor="1.15" duration="170.50" waitingTime="0.00" timeLoss="31.82" traveltime="170.50">
        <walk depart="18.50" departPos="100.00" arrival="189.00" arrivalPos="93.20" duration="170.50" routeLength="221.24" timeLoss="31.82" maxSpeed="1.60"/>
    </personinfo>
    <personinfo id="person_NS_w.3" depart="26.46" type="DEFAULT_PEDTYPE" speedFactor="1.15" duration="163.00" waitingTime="0.00" timeLoss="24.22" traveltime="163.00">
        <walk depart="26.50" departPos="100.00" arrival="189.50" arrivalPos="93.20" duration="163.00" routeLength="221.25" timeLoss="24.22" maxSpeed="1.59"/>
    </personinfo>
    <tripinfo id="WE_11" depart="118.50" departLane="2_1_2" departPos="5.10" departSpeed="0.00" departDelay="1.50" arrival="189.50" arrivalLane="1_4_2" arrivalPos="186.40" arrivalSpeed="12.52" duration="71.00" routeLength="395.15" waitingTime="21.00" waitingCount="1" stopTime="0.00" timeLoss="40.32" rerouteNo="0" devices="tripinfo_WE_11" vType="cars" speedFactor="1.12" vaporized=""/>
    <tripinfo id="WE_13" depart="125.00" departLane="2_1_2" departPos="5.10" departSpeed="0.00" departDelay="6.00" arrival="190.00" arrivalLane="1_4_1" arrivalPos="186.40" arrivalSpeed="12.03" duration="65.00" routeLength="395.15" waitingTime="14.50" waitingCount="2" stopTime="0.00" timeLoss="34.38" rerouteNo="0" devices="tripinfo_WE_13" vType="cars" speedFactor="0.93" vaporized=""/>
    <personinfo id="person_NS_w.0" depart="2.40" type="DEFAULT_PEDTYPE" speedFactor="1.12" duration="188.50" waitingTime="0.00" timeLoss="46.33" traveltime="188.50">
        <walk depart="2.50" departPos="100.00" arrival="191.00" arrivalPos="93.20" duration="188.50" routeLength="221.25" timeLoss="46.33" maxSpeed="1.56"/>
    </personinfo>
    <tripinfo id="EW_11" depart="146.50" departLane="4_1_2" departPos="5.10" departSpeed="0.00" departDelay="1.50" arrival="191.00" arrivalLane="1_2_1" arrivalPos="186.40" arrivalSpeed="11.71" duration="44.50" routeLength="395.15" waitingTime="0.00" waitingCount="0" stopTime="0.00" timeLoss="13.74" rerouteNo="0" devices="tripinfo_EW_11" vType="cars" speedFactor="1.14" vaporized=""/>
    <tripinfo id="WE_12" depart="122.00" departLane="2_1_2" departPos="5.10" departSpeed="0.00" departDelay="4.00" arrival="191.50" arrivalLane="1_4_2" arrivalPos="186.40" arrivalSpeed="11.80" duration="69.50" routeLength="395.15" waitingTime="19.50" waitingCount="1" stopTime="0.00" timeLoss="38.69" rerouteNo="0" devices="tripinfo_WE_12" vType="cars" speedFactor="0.97" vaporized=""/>
    <tripinfo id="WE_14" depart="127.50" departLane="2_1_2" departPos="5.10" departSpeed="0.00" departDelay="5.50" arrival="193.00" arrivalLane="1_4_1" arrivalPos="186.40" arrivalSpeed="11.72" duration="65.50" routeLength="395.15" waitingTime="17.00" waitingCount="2" stopTime="0.00" timeLoss="34.88" rerouteNo="0" devices="tripinfo_WE_14" vType="cars" speedFactor="1.11" vaporized=""/>
    <personinfo id="person_WN_diag.0" depart="12.22" type="DEFAULT_PEDTYPE" speedFactor="1.07" duration="182.00" waitingTime="0.00" timeLoss="24.84" traveltime="182.00">
        <walk depart="12.50" departPos="100.00" arrival="194.50" arrivalPos="93.20" duration="182.00" routeLength="233.56" timeLoss="24.84" maxSpeed="1.49"/>
    </personinfo>