<?xml version="1.0" encoding="UTF-8"?>

<!-- generated on 2025-06-22 17:07:09 by Eclipse SUMO GUI Version 1.22.0
<sumoConfiguration xmlns:xsi="http://www.w3.org/2001/XMLSchema-instance" xsi:noNamespaceSchemaLocation="http://sumo.dlr.de/xsd/sumoConfiguration.xsd">

    <input>
        <net-file value="/home/naderian/Desktop/Shakiba/MMSVCC/environment/network_model/single_intersection_pedestrian_X.net.xml"/>
        <route-files value="/home/naderian/Desktop/Shakiba/MMSVCC/environment/network_model/single_intersection.rou.xml"/>
        <additional-files value="/home/naderian/Desktop/Shakiba/MMSVCC/environment/network_model/single_intersection_Concurrent.add.xml"/>
    </input>

    <output>
        <queue-output value="/home/naderian/Desktop/Shakiba/MMSVCC/environment/simulation_data/single_intersection/queues_multi_scale_asymmetric_pene_100.xml"/>
        <tripinfo-output value="/home/naderian/Desktop/Shakiba/MMSVCC/environment/simulation_data/single_intersection/tripinfo_multi_scale_asymmetric_pene_100.xml"/>
    </output>

    <time>
        <begin value="0"/>
        <step-length value="0.5"/>
    </time>

    <processing>
        <waiting-time-memory value="1000"/>
    </processing>

    <report>
        <verbose value="true"/>
        <no-step-log value="true"/>
    </report>

    <traci_server>
        <remote-port value="53659"/>
    </traci_server>

    <gui_only>
        <start value="true"/>
    </gui_only>

</sumoConfiguration>
-->

<tripinfos xmlns:xsi="http://www.w3.org/2001/XMLSchema-instance" xsi:noNamespaceSchemaLocation="http://sumo.dlr.de/xsd/tripinfo_file.xsd">
    <tripinfo id="SN_0" depart="0.00" departLane="3_1_2" departPos="5.10" departSpeed="0.00" departDelay="0.00" arrival="35.00" arrivalLane="1_5_1" arrivalPos="186.40" arrivalSpeed="13.00" duration="35.00" routeLength="395.15" waitingTime="0.00" waitingCount="0" stopTime="0.00" timeLoss="4.21" rerouteNo="0" devices="tripinfo_SN_0" vType="cars" speedFactor="1.02" vaporized=""/>
    <tripinfo id="NS_1" depart="1.00" departLane="5_1_2" departPos="5.10" departSpeed="0.00" departDelay="0.00" arrival="38.00" arrivalLane="1_3_1" arrivalPos="186.40" arrivalSpeed="13.00" duration="37.00" routeLength="395.15" waitingTime="0.00" waitingCount="0" stopTime="0.00" timeLoss="6.29" rerouteNo="0" devices="tripinfo_NS_1" vType="cars" speedFactor="1.01" vaporized=""/>
    <tripinfo id="SN_2" depart="5.00" departLane="3_1_2" departPos="5.10" departSpeed="0.00" departDelay="0.00" arrival="40.50" arrivalLane="1_5_1" arrivalPos="186.40" arrivalSpeed="13.00" duration="35.50" routeLength="395.15" waitingTime="0.00" waitingCount="0" stopTime="0.00" timeLoss="4.90" rerouteNo="0" devices="tripinfo_SN_2" vType="cars" speedFactor="1.05" vaporized=""/>
    <tripinfo id="WE_0" depart="1.00" departLane="2_1_2" departPos="5.10" departSpeed="0.00" departDelay="0.00" arrival="58.00" arrivalLane="1_4_1" arrivalPos="186.40" arrivalSpeed="13.00" duration="57.00" routeLength="395.15" waitingTime="16.00" waitingCount="1" stopTime="0.00" timeLoss="26.55" rerouteNo="0" devices="tripinfo_WE_0" vType="cars" speedFactor="1.12" vaporized=""/>
    <tripinfo id="WE_1" depart="10.00" departLane="2_1_2" departPos="5.10" departSpeed="0.00" departDelay="0.00" arrival="58.00" arrivalLane="1_4_2" arrivalPos="186.40" arrivalSpeed="13.00" duration="48.00" routeLength="395.15" waitingTime="9.50" waitingCount="1" stopTime="0.00" timeLoss="17.55" rerouteNo="0" devices="tripinfo_WE_1" vType="cars" speedFactor="0.94" vaporized=""/>
    <tripinfo id="WS_3" depart="7.00" departLane="2_1_1" departPos="5.10" departSpeed="0.00" departDelay="0.00" arrival="59.00" arrivalLane="1_3_1" arrivalPos="186.40" arrivalSpeed="13.00" duration="52.00" routeLength="379.43" waitingTime="7.00" waitingCount="1" stopTime="0.00" timeLoss="21.85" rerouteNo="0" devices="tripinfo_WS_3" vType="cars" speedFactor="1.01" vaporized=""/>
    <tripinfo id="WE_2" depart="12.50" departLane="2_1_2" departPos="5.10" departSpeed="0.00" departDelay="0.50" arrival="59.50" arrivalLane="1_4_2" arrivalPos="186.40" arrivalSpeed="13.00" duration="47.00" routeLength="395.15" waitingTime="0.00" waitingCount="0" stopTime="0.00" timeLoss="16.59" rerouteNo="0" devices="tripinfo_WE_2" vType="cars" speedFactor="0.91" vaporized=""/>
    <tripinfo id="WE_5" depart="29.00" departLane="2_1_2" departPos="5.10" departSpeed="0.00" departDelay="0.00" arrival="65.50" arrivalLane="1_4_1" arrivalPos="186.40" arrivalSpeed="13.00" duration="36.50" routeLength="395.15" waitingTime="0.00" waitingCount="0" stopTime="0.00" timeLoss="6.04" rerouteNo="0" devices="tripinfo_WE_5" vType="cars" speedFactor="1.01" vaporized=""/>
    <tripinfo id="WE_3" depart="19.00" departLane="2_1_2" departPos="5.10" departSpeed="0.00" departDelay="0.00" arrival="67.00" arrivalLane="1_4_1" arrivalPos="186.40" arrivalSpeed="9.47" duration="48.00" routeLength="395.15" waitingTime="0.00" waitingCount="0" stopTime="0.00" timeLoss="17.49" rerouteNo="0" devices="tripinfo_WE_3" vType="cars" speedFactor="0.93" vaporized=""/>
    <tripinfo id="WS_5" depart="16.00" departLane="2_1_1" departPos="5.10" departSpeed="0.00" departDelay="0.00" arrival="67.50" arrivalLane="1_3_1" arrivalPos="186.40" arrivalSpeed="8.94" duration="51.50" routeLength="379.43" waitingTime="0.00" waitingCount="0" stopTime="0.00" timeLoss="21.20" rerouteNo="0" devices="tripinfo_WS_5" vType="cars" speedFactor="0.89" vaporized=""/>
    <tripinfo id="WE_4" depart="26.00" departLane="2_1_2" departPos="5.10" departSpeed="0.00" departDelay="0.00" arrival="68.00" arrivalLane="1_4_1" arrivalPos="186.40" arrivalSpeed="13.00" duration="42.00" routeLength="395.15" waitingTime="0.00" waitingCount="0" stopTime="0.00" timeLoss="11.44" rerouteNo="0" devices="tripinfo_WE_4" vType="cars" speedFactor="1.01" vaporized=""/>
    <tripinfo id="EW_0" depart="32.00" departLane="4_1_2" departPos="5.10" departSpeed="0.00" departDelay="0.00" arrival="71.50" arrivalLane="1_2_1" arrivalPos="186.40" arrivalSpeed="13.00" duration="39.50" routeLength="395.15" waitingTime="0.00" waitingCount="0" stopTime="0.00" timeLoss="9.10" rerouteNo="0" devices="tripinfo_EW_0" vType="cars" speedFactor="0.93" vaporized=""/>
    <tripinfo id="NS_7" depart="22.00" departLane="5_1_2" departPos="5.10" departSpeed="0.00" departDelay="0.00" arrival="83.00" arrivalLane="1_3_1" arrivalPos="186.40" arrivalSpeed="13.00" duration="61.00" routeLength="395.15" waitingTime="15.00" waitingCount="2" stopTime="0.00" timeLoss="30.55" rerouteNo="0" devices="tripinfo_NS_7" vType="cars" speedFactor="0.76" vaporized=""/>
    <tripinfo id="SN_8" depart="25.00" departLane="3_1_2" departPos="5.10" departSpeed="0.00" departDelay="0.00" arrival="83.00" arrivalLane="1_5_1" arrivalPos="186.40" arrivalSpeed="13.00" duration="58.00" routeLength="395.15" waitingTime="17.50" waitingCount="1" stopTime="0.00" timeLoss="27.55" rerouteNo="0" devices="tripinfo_SN_8" vType="cars" speedFactor="0.96" vaporized=""/>
    <tripinfo id="SN_10" depart="30.50" departLane="3_1_2" departPos="5.10" departSpeed="0.00" departDelay="1.50" arrival="83.00" arrivalLane="1_5_2" arrivalPos="186.40" arrivalSpeed="13.00" duration="52.50" routeLength="395.15" waitingTime="12.00" waitingCount="1" stopTime="0.00" timeLoss="22.05" rerouteNo="0" devices="tripinfo_SN_10" vType="cars" speedFactor="0.83" vaporized=""/>
    <tripinfo id="NS_12" depart="34.00" departLane="5_1_2" departPos="5.10" departSpeed="0.00" departDelay="0.00" arrival="83.00" arrivalLane="1_3_2" arrivalPos="186.40" arrivalSpeed="13.00" duration="49.00" routeLength="395.15" waitingTime="3.00" waitingCount="2" stopTime="0.00" timeLoss="18.55" rerouteNo="0" devices="tripinfo_NS_12" vType="cars" speedFactor="0.85" vaporized=""/>
    <tripinfo id="SN_9" depart="27.50" departLane="3_1_2" departPos="5.10" departSpeed="0.00" departDelay="1.50" arrival="84.50" arrivalLane="1_5_1" arrivalPos="186.40" arrivalSpeed="13.00" duration="57.00" routeLength="395.15" waitingTime="12.00" waitingCount="5" stopTime="0.00" timeLoss="26.59" rerouteNo="0" devices="tripinfo_SN_9" vType="cars" speedFactor="0.89" vaporized=""/>
    <tripinfo id="SN_11" depart="33.00" departLane="3_1_2" departPos="5.10" departSpeed="0.00" departDelay="3.00" arrival="84.50" arrivalLane="1_5_2" arrivalPos="186.40" arrivalSpeed="13.00" duration="51.50" routeLength="395.15" waitingTime="7.50" waitingCount="4" stopTime="0.00" timeLoss="21.09" rerouteNo="0" devices="tripinfo_SN_11" vType="cars" speedFactor="1.06" vaporized=""/>
    <tripinfo id="SE_15" depart="39.00" departLane="3_1_1" departPos="5.10" departSpeed="0.00" departDelay="0.00" arrival="90.00" arrivalLane="1_4_2" arrivalPos="186.40" arrivalSpeed="13.00" duration="51.00" routeLength="379.42" waitingTime="2.00" waitingCount="4" stopTime="0.00" timeLoss="20.55" rerouteNo="0" devices="tripinfo_SE_15" vType="cars" speedFactor="0.92" vaporized=""/>
    <tripinfo id="NW_17" depart="53.00" departLane="5_1_1" departPos="5.10" departSpeed="0.00" departDelay="0.00" arrival="90.00" arrivalLane="1_2_1" arrivalPos="186.40" arrivalSpeed="13.00" duration="37.00" routeLength="379.43" waitingTime="0.00" waitingCount="0" stopTime="0.00" timeLoss="6.37" rerouteNo="0" devices="tripinfo_NW_17" vType="cars" speedFactor="0.79" vaporized=""/>
    <tripinfo id="SN_16" depart="40.50" departLane="3_1_2" departPos="5.10" departSpeed="0.00" departDelay="0.50" arrival="91.00" arrivalLane="1_5_1" arrivalPos="186.40" arrivalSpeed="13.00" duration="50.50" routeLength="395.15" waitingTime="1.50" waitingCount="3" stopTime="0.00" timeLoss="19.70" rerouteNo="0" devices="tripinfo_SN_16" vType="cars" speedFactor="0.84" vaporized=""/>
    <tripinfo id="SE_13" depart="36.00" departLane="3_1_1" departPos="5.10" departSpeed="0.00" departDelay="0.00" arrival="91.50" arrivalLane="1_4_1" arrivalPos="186.40" arrivalSpeed="9.12" duration="55.50" routeLength="379.42" waitingTime="3.00" waitingCount="3" stopTime="0.00" timeLoss="25.74" rerouteNo="0" devices="tripinfo_SE_13" vType="cars" speedFactor="1.12" vaporized=""/>
    <tripinfo id="SN_14" depart="38.00" departLane="3_1_2" departPos="5.10" departSpeed="0.00" departDelay="0.00" arrival="93.00" arrivalLane="1_5_1" arrivalPos="186.40" arrivalSpeed="9.12" duration="55.00" routeLength="395.15" waitingTime="2.00" waitingCount="4" stopTime="0.00" timeLoss="24.41" rerouteNo="0" devices="tripinfo_SN_14" vType="cars" speedFactor="0.96" vaporized=""/>
    <tripinfo id="WE_6" depart="32.00" departLane="2_1_2" departPos="5.10" departSpeed="0.00" departDelay="2.00" arrival="108.00" arrivalLane="1_4_1" arrivalPos="186.40" arrivalSpeed="13.00" duration="76.00" routeLength="395.15" waitingTime="34.00" waitingCount="1" stopTime="0.00" timeLoss="45.55" rerouteNo="0" devices="tripinfo_WE_6" vType="cars" speedFactor="0.95" vaporized=""/>
    <tripinfo id="EW_1" depart="37.00" departLane="4_1_2" departPos="5.10" departSpeed="0.00" departDelay="0.00" arrival="108.00" arrivalLane="1_2_1" arrivalPos="186.40" arrivalSpeed="13.00" duration="71.00" routeLength="395.15" waitingTime="24.50" waitingCount="1" stopTime="0.00" timeLoss="40.55" rerouteNo="0" devices="tripinfo_EW_1" vType="cars" speedFactor="1.10" vaporized=""/>
    <tripinfo id="EW_2" depart="42.00" departLane="4_1_2" departPos="5.10" departSpeed="0.00" departDelay="0.00" arrival="108.00" arrivalLane="1_2_2" arrivalPos="186.40" arrivalSpeed="13.00" duration="66.00" routeLength="395.15" waitingTime="23.00" waitingCount="2" stopTime="0.00" timeLoss="35.55" rerouteNo="0" devices="tripinfo_EW_2" vType="cars" speedFactor="1.02" vaporized=""/>
    <tripinfo id="WE_7" depart="50.00" departLane="2_1_2" departPos="5.10" departSpeed="0.00" departDelay="0.00" arrival="108.00" arrivalLane="1_4_2" arrivalPos="186.40" arrivalSpeed="13.00" duration="58.00" routeLength="395.15" waitingTime="19.50" waitingCount="1" stopTime="0.00" timeLoss="27.55" rerouteNo="0" devices="tripinfo_WE_7" vType="cars" speedFactor="1.01" vaporized=""/>
    <tripinfo id="EW_3" depart="46.00" departLane="4_1_2" departPos="5.10" departSpeed="0.00" departDelay="0.00" arrival="109.50" arrivalLane="1_2_1" arrivalPos="186.40" arrivalSpeed="13.00" duration="63.50" routeLength="395.15" waitingTime="16.50" waitingCount="3" stopTime="0.00" timeLoss="33.09" rerouteNo="0" devices="tripinfo_EW_3" vType="cars" speedFactor="1.18" vaporized=""/>
    <tripinfo id="WE_8" depart="78.00" departLane="2_1_2" departPos="5.10" departSpeed="0.00" departDelay="0.00" arrival="114.50" arrivalLane="1_4_1" arrivalPos="186.40" arrivalSpeed="13.00" duration="36.50" routeLength="395.15" waitingTime="0.00" waitingCount="0" stopTime="0.00" timeLoss="5.67" rerouteNo="0" devices="tripinfo_WE_8" vType="cars" speedFactor="1.01" vaporized=""/>
    <tripinfo id="EW_4" depart="62.00" departLane="4_1_2" departPos="5.10" departSpeed="0.00" departDelay="0.00" arrival="118.00" arrivalLane="1_2_1" arrivalPos="186.40" arrivalSpeed="9.10" duration="56.00" routeLength="395.15" waitingTime="1.00" waitingCount="2" stopTime="0.00" timeLoss="25.46" rerouteNo="0" devices="tripinfo_EW_4" vType="cars" speedFactor="0.95" vaporized=""/>
    <tripinfo id="WE_9" depart="83.00" departLane="2_1_2" departPos="5.10" departSpeed="0.00" departDelay="0.00" arrival="118.50" arrivalLane="1_4_1" arrivalPos="186.40" arrivalSpeed="13.00" duration="35.50" routeLength="395.15" waitingTime="0.00" waitingCount="0" stopTime="0.00" timeLoss="4.85" rerouteNo="0" devices="tripinfo_WE_9" vType="cars" speedFactor="1.08" vaporized=""/>
    <tripinfo id="EW_5" depart="82.00" departLane="4_1_2" departPos="5.10" departSpeed="0.00" departDelay="0.00" arrival="119.50" arrivalLane="1_2_1" arrivalPos="186.40" arrivalSpeed="13.00" duration="37.50" routeLength="395.15" waitingTime="0.00" waitingCount="0" stopTime="0.00" timeLoss="6.85" rerouteNo="0" devices="tripinfo_EW_5" vType="cars" speedFactor="1.04" vaporized=""/>
    <tripinfo id="WS_22" depart="79.00" departLane="2_1_1" departPos="5.10" departSpeed="0.00" departDelay="0.00" arrival="120.50" arrivalLane="1_3_1" arrivalPos="186.40" arrivalSpeed="13.00" duration="41.50" routeLength="379.43" waitingTime="3.50" waitingCount="1" stopTime="0.00" timeLoss="11.17" rerouteNo="0" devices="tripinfo_WS_22" vType="cars" speedFactor="1.02" vaporized=""/>
    <tripinfo id="WE_10" depart="85.50" departLane="2_1_2" departPos="5.10" departSpeed="0.00" departDelay="1.50" arrival="122.50" arrivalLane="1_4_1" arrivalPos="186.40" arrivalSpeed="13.00" duration="37.00" routeLength="395.15" waitingTime="0.00" waitingCount="0" stopTime="0.00" timeLoss="6.47" rerouteNo="0" devices="tripinfo_WE_10" vType="cars" speedFactor="1.13" vaporized=""/>
    <tripinfo id="WE_11" depart="89.00" departLane="2_1_2" departPos="5.10" departSpeed="0.00" departDelay="4.00" arrival="125.50" arrivalLane="1_4_1" arrivalPos="186.40" arrivalSpeed="13.00" duration="36.50" routeLength="395.15" waitingTime="0.00" waitingCount="0" stopTime="0.00" timeLoss="5.77" rerouteNo="0" devices="tripinfo_WE_11" vType="cars" speedFactor="1.05" vaporized=""/>
    <tripinfo id="EW_6" depart="91.00" departLane="4_1_2" departPos="5.10" departSpeed="0.00" departDelay="0.00" arrival="127.00" arrivalLane="1_2_1" arrivalPos="186.40" arrivalSpeed="13.00" duration="36.00" routeLength="395.15" waitingTime="0.00" waitingCount="0" stopTime="0.00" timeLoss="5.25" rerouteNo="0" devices="tripinfo_EW_6" vType="cars" speedFactor="1.00" vaporized=""/>
    <tripinfo id="EW_7" depart="96.00" departLane="4_1_2" departPos="5.10" departSpeed="0.00" departDelay="0.00" arrival="132.50" arrivalLane="1_2_1" arrivalPos="186.40" arrivalSpeed="13.00" duration="36.50" routeLength="395.15" waitingTime="0.00" waitingCount="0" stopTime="0.00" timeLoss="5.95" rerouteNo="0" devices="tripinfo_EW_7" vType="cars" speedFactor="0.98" vaporized=""/>
    <tripinfo id="WE_12" depart="98.00" departLane="2_1_2" departPos="5.10" departSpeed="0.00" departDelay="0.00" arrival="133.50" arrivalLane="1_4_1" arrivalPos="186.40" arrivalSpeed="13.00" duration="35.50" routeLength="395.15" waitingTime="0.00" waitingCount="0" stopTime="0.00" timeLoss="4.97" rerouteNo="0" devices="tripinfo_WE_12" vType="cars" speedFactor="0.83" vaporized=""/>
    <tripinfo id="EW_8" depart="99.50" departLane="4_1_2" departPos="5.10" departSpeed="0.00" departDelay="1.50" arrival="135.50" arrivalLane="1_2_2" arrivalPos="186.40" arrivalSpeed="13.00" duration="36.00" routeLength="395.15" waitingTime="0.00" waitingCount="0" stopTime="0.00" timeLoss="5.20" rerouteNo="0" devices="tripinfo_EW_8" vType="cars" speedFactor="0.96" vaporized=""/>
    <tripinfo id="EN_26" depart="99.00" departLane="4_1_1" departPos="5.10" departSpeed="0.00" departDelay="0.00" arrival="138.50" arrivalLane="1_5_1" arrivalPos="186.40" arrivalSpeed="13.00" duration="39.50" routeLength="379.42" waitingTime="2.50" waitingCount="1" stopTime="0.00" timeLoss="8.97" rerouteNo="0" devices="tripinfo_EN_26" vType="cars" speedFactor="0.97" vaporized=""/>
    <tripinfo id="SN_18" depart="60.00" departLane="3_1_2" departPos="5.10" departSpeed="0.00" departDelay="0.00" arrival="153.00" arrivalLane="1_5_1" arrivalPos="186.40" arrivalSpeed="13.00" duration="93.00" routeLength="395.15" waitingTime="47.50" waitingCount="1" stopTime="0.00" timeLoss="62.55" rerouteNo="0" devices="tripinfo_SN_18" vType="cars" speedFactor="0.98" vaporized=""/>
    <tripinfo id="NS_19" depart="66.00" departLane="5_1_2" departPos="5.10" departSpeed="0.00" departDelay="0.00" arrival="153.00" arrivalLane="1_3_1" arrivalPos="186.40" arrivalSpeed="13.00" duration="87.00" routeLength="395.15" waitingTime="44.00" waitingCount="1" stopTime="0.00" timeLoss="56.55" rerouteNo="0" devices="tripinfo_NS_19" vType="cars" speedFactor="0.93" vaporized=""/>
    <tripinfo id="SN_21" depart="75.00" departLane="3_1_2" departPos="5.10" departSpeed="0.00" departDelay="0.00" arrival="153.00" arrivalLane="1_5_2" arrivalPos="186.40" arrivalSpeed="13.00" duration="78.00" routeLength="395.15" waitingTime="37.50" waitingCount="2" stopTime="0.00" timeLoss="47.55" rerouteNo="0" devices="tripinfo_SN_21" vType="cars" speedFactor="1.05" vaporized=""/>
    <tripinfo id="NS_24" depart="84.00" departLane="5_1_2" departPos="5.10" departSpeed="0.00" departDelay="0.00" arrival="153.00" arrivalLane="1_3_2" arrivalPos="186.40" arrivalSpeed="13.00" duration="69.00" routeLength="395.15" waitingTime="27.00" waitingCount="3" stopTime="0.00" timeLoss="38.55" rerouteNo="0" devices="tripinfo_NS_24" vType="cars" speedFactor="1.09" vaporized=""/>
    <tripinfo id="SN_23" depart="83.00" departLane="3_1_2" departPos="5.10" departSpeed="0.00" departDelay="0.00" arrival="154.50" arrivalLane="1_5_1" arrivalPos="186.40" arrivalSpeed="13.00" duration="71.50" routeLength="395.15" waitingTime="25.50" waitingCount="4" stopTime="0.00" timeLoss="41.09" rerouteNo="0" devices="tripinfo_SN_23" vType="cars" speedFactor="1.11" vaporized=""/>
    <tripinfo id="NS_25" depart="92.00" departLane="5_1_2" departPos="5.10" departSpeed="0.00" departDelay="0.00" arrival="154.50" arrivalLane="1_3_1" arrivalPos="186.40" arrivalSpeed="13.00" duration="62.50" routeLength="395.15" waitingTime="13.00" waitingCount="3" stopTime="0.00" timeLoss="32.09" rerouteNo="0" devices="tripinfo_NS_25" vType="cars" speedFactor="0.88" vaporized=""/>
    <tripinfo id="NS_32" depart="118.00" departLane="5_1_2" departPos="5.10" departSpeed="0.00" departDelay="0.00" arrival="158.50" arrivalLane="1_3_1" arrivalPos="186.40" arrivalSpeed="13.00" duration="40.50" routeLength="395.15" waitingTime="0.00" waitingCount="0" stopTime="0.00" timeLoss="9.96" rerouteNo="0" devices="tripinfo_NS_32" vType="cars" speedFactor="1.12" vaporized=""/>
    <tripinfo id="SN_29" depart="109.00" departLane="3_1_2" departPos="5.10" departSpeed="0.00" departDelay="0.00" arrival="160.50" arrivalLane="1_5_1" arrivalPos="186.40" arrivalSpeed="13.00" duration="51.50" routeLength="395.15" waitingTime="2.00" waitingCount="2" stopTime="0.00" timeLoss="20.76" rerouteNo="0" devices="tripinfo_SN_29" vType="cars" speedFactor="0.99" vaporized=""/>
    <tripinfo id="SN_28" depart="105.00" departLane="3_1_2" departPos="5.10" departSpeed="0.00" departDelay="0.00" arrival="163.00" arrivalLane="1_5_2" arrivalPos="186.40" arrivalSpeed="9.11" duration="58.00" routeLength="395.15" waitingTime="5.50" waitingCount="1" stopTime="0.00" timeLoss="27.43" rerouteNo="0" devices="tripinfo_SN_28" vType="cars" speedFactor="1.25" vaporized=""/>
    <tripinfo id="NS_30" depart="111.00" departLane="5_1_2" departPos="5.10" departSpeed="0.00" departDelay="0.00" arrival="163.00" arrivalLane="1_3_2" arrivalPos="186.40" arrivalSpeed="9.17" duration="52.00" routeLength="395.15" waitingTime="0.00" waitingCount="0" stopTime="0.00" timeLoss="21.32" rerouteNo="0" devices="tripinfo_NS_30" vType="cars" speedFactor="0.95" vaporized=""/>
    <tripinfo id="SN_37" depart="128.00" departLane="3_1_2" departPos="5.10" departSpeed="0.00" departDelay="0.00" arrival="163.50" arrivalLane="1_5_1" arrivalPos="186.40" arrivalSpeed="13.00" duration="35.50" routeLength="395.15" waitingTime="0.00" waitingCount="0" stopTime="0.00" timeLoss="4.80" rerouteNo="0" devices="tripinfo_SN_37" vType="cars" speedFactor="0.89" vaporized=""/>
    <tripinfo id="SN_35" depart="124.00" departLane="3_1_2" departPos="5.10" departSpeed="0.00" departDelay="0.00" arrival="164.50" arrivalLane="1_5_2" arrivalPos="186.40" arrivalSpeed="13.00" duration="40.50" routeLength="395.15" waitingTime="0.00" waitingCount="0" stopTime="0.00" timeLoss="9.80" rerouteNo="0" devices="tripinfo_SN_35" vType="cars" speedFactor="1.14" vaporized=""/>
    <tripinfo id="NS_36" depart="128.00" departLane="5_1_2" departPos="5.10" departSpeed="0.00" departDelay="0.00" arrival="164.50" arrivalLane="1_3_2" arrivalPos="186.40" arrivalSpeed="13.00" duration="36.50" routeLength="395.15" waitingTime="0.00" waitingCount="0" stopTime="0.00" timeLoss="5.72" rerouteNo="0" devices="tripinfo_NS_36" vType="cars" speedFactor="0.95" vaporized=""/>
    <tripinfo id="SE_27" depart="101.00" departLane="3_1_1" departPos="5.10" departSpeed="0.00" departDelay="0.00" arrival="165.50" arrivalLane="1_4_1" arrivalPos="186.40" arrivalSpeed="13.00" duration="64.50" routeLength="379.42" waitingTime="17.00" waitingCount="2" stopTime="0.00" timeLoss="34.34" rerouteNo="0" devices="tripinfo_SE_27" vType="cars" speedFactor="1.14" vaporized=""/>
    <tripinfo id="SE_33" depart="122.00" departLane="3_1_1" departPos="5.10" departSpeed="0.00" departDelay="0.00" arrival="167.00" arrivalLane="1_4_1" arrivalPos="186.40" arrivalSpeed="13.00" duration="45.00" routeLength="379.42" waitingTime="3.00" waitingCount="1" stopTime="0.00" timeLoss="14.91" rerouteNo="0" devices="tripinfo_SE_33" vType="cars" speedFactor="0.98" vaporized=""/>
    <tripinfo id="NW_20" depart="69.00" departLane="5_1_1" departPos="5.10" departSpeed="0.00" departDelay="0.00" arrival="179.00" arrivalLane="1_2_1" arrivalPos="186.40" arrivalSpeed="13.00" duration="110.00" routeLength="379.43" waitingTime="63.50" waitingCount="5" stopTime="0.00" timeLoss="79.71" rerouteNo="0" devices="tripinfo_NW_20" vType="cars" speedFactor="1.06" vaporized=""/>
    <personinfo id="person_WE_s.0" depart="1.50" type="DEFAULT_PEDTYPE" speedFactor="0.98" duration="179.50" waitingTime="0.00" timeLoss="16.21" traveltime="179.50">
        <walk depart="1.50" departPos="100.00" arrival="181.00" arrivalPos="93.20" duration="179.50" routeLength="221.17" timeLoss="16.21" maxSpeed="1.35"/>
    </personinfo>
    <personinfo id="person_WE_s.2" depart="37.00" type="DEFAULT_PEDTYPE" speedFactor="1.20" duration="144.50" waitingTime="0.00" timeLoss="11.85" traveltime="144.50">
        <walk depart="37.00" departPos="100.00" arrival="181.50" arrivalPos="93.20" duration="144.50" routeLength="221.17" timeLoss="11.85" maxSpeed="1.67"/>
    </personinfo>
    <tripinfo id="EW_9" depart="108.00" departLane="4_1_2" departPos="5.10" departSpeed="0.00" departDelay="0.00" arrival="183.00" arrivalLane="1_2_1" arrivalPos="186.40" arrivalSpeed="13.00" duration="75.00" routeLength="395.15" waitingTime="33.00" waitingCount="1" stopTime="0.00" timeLoss="44.55" rerouteNo="0" devices="tripinfo_EW_9" vType="cars" speedFactor="0.91" vaporized=""/>
    <tripinfo id="EW_10" depart="112.00" departLane="4_1_2" departPos="5.10" departSpeed="0.00" departDelay="0.00" arrival="183.00" arrivalLane="1_2_2" arrivalPos="186.40" arrivalSpeed="13.00" duration="71.00" routeLength="395.15" waitingTime="28.00" waitingCount="2" stopTime="0.00" timeLoss="40.55" rerouteNo="0" devices="tripinfo_EW_10" vType="cars" speedFactor="1.12" vaporized=""/>
    <tripinfo id="WE_13" depart="121.00" departLane="2_1_2" departPos="5.10" departSpeed="0.00" departDelay="0.00" arrival="183.00" arrivalLane="1_4_1" arrivalPos="186.40" arrivalSpeed="13.00" duration="62.00" routeLength="395.15" waitingTime="21.50" waitingCount="1" stopTime="0.00" timeLoss="31.55" rerouteNo="0" devices="tripinfo_WE_13" vType="cars" speedFactor="1.05" vaporized=""/>
    <tripinfo id="WE_14" depart="123.50" departLane="2_1_2" departPos="5.10" departSpeed="0.00" departDelay="0.50" arrival="183.00" arrivalLane="1_4_2" arrivalPos="186.40" arrivalSpeed="13.00" duration="59.50" routeLength="395.15" waitingTime="17.00" waitingCount="1" stopTime="0.00" timeLoss="29.05" rerouteNo="0" devices="tripinfo_WE_14" vType="cars" speedFactor="1.04" vaporized=""/>
    <tripinfo id="EW_11" depart="114.50" departLane="4_1_2" departPos="5.10" departSpeed="0.00" departDelay="1.50" arrival="184.50" arrivalLane="1_2_1" arrivalPos="186.40" arrivalSpeed="13.00" duration="70.00" routeLength="395.15" waitingTime="24.00" waitingCount="3" stopTime="0.00" timeLoss="39.59" rerouteNo="0" devices="tripinfo_EW_11" vType="cars" speedFactor="0.98" vaporized=""/>
    <tripinfo id="WE_15" depart="132.00" departLane="2_1_2" departPos="5.10" departSpeed="0.00" departDelay="0.00" arrival="184.50" arrivalLane="1_4_1" arrivalPos="186.40" arrivalSpeed="13.00" duration="52.50" routeLength="395.15" waitingTime="5.00" waitingCount="1" stopTime="0.00" timeLoss="22.09" rerouteNo="0" devices="tripinfo_WE_15" vType="cars" speedFactor="1.10" vaporized=""/>
    <personinfo id="person_EW_n.0" depart="31.00" type="DEFAULT_PEDTYPE" speedFactor="1.06" duration="160.50" waitingTime="0.00" timeLoss="10.67" traveltime="160.50">
        <walk depart="31.00" departPos="100.00" arrival="191.50" arrivalPos="93.20" duration="160.50" routeLength="221.32" timeLoss="10.67" maxSpeed="1.48"/>
    </personinfo>
    <personinfo id="person_WE_s.1" depart="31.00" type="DEFAULT_PEDTYPE" speedFactor="1.08" duration="160.50" waitingTime="0.00" timeLoss="13.42" traveltime="160.50">
        <walk depart="31.00" departPos="100.00" arrival="191.50" arrivalPos="93.20" duration="160.50" routeLength="221.17" timeLoss="13.42" maxSpeed="1.50"/>
    </personinfo>
    <tripinfo id="WE_17" depart="138.50" departLane="2_1_2" departPos="5.10" departSpeed="0.00" departDelay="1.50" arrival="192.00" arrivalLane="1_4_2" arrivalPos="186.40" arrivalSpeed="13.00" duration="53.50" routeLength="395.15" waitingTime="1.00" waitingCount="2" stopTime="0.00" timeLoss="23.05" rerouteNo="0" devices="tripinfo_WE_17" vType="cars" speedFactor="0.98" vaporized=""/>
    <tripinfo id="EW_12" depart="119.00" departLane="4_1_2" departPos="5.10" departSpeed="0.00" departDelay="0.00" arrival="193.00" arrivalLane="1_2_1" arrivalPos="186.40" arrivalSpeed="9.11" duration="74.00" routeLength="395.15" waitingTime="18.00" waitingCount="5" stopTime="0.00" timeLoss="43.43" rerouteNo="0" devices="tripinfo_EW_12" vType="cars" speedFactor="0.99" vaporized=""/>
    <tripinfo id="WE_16" depart="135.50" departLane="2_1_2" departPos="5.10" departSpeed="0.00" departDelay="0.50" arrival="193.00" arrivalLane="1_4_1" arrivalPos="186.40" arrivalSpeed="9.12" duration="57.50" routeLength="395.15" waitingTime="2.50" waitingCount="4" stopTime="0.00" timeLoss="26.92" rerouteNo="0" devices="tripinfo_WE_16" vType="cars" speedFactor="1.09" vaporized=""/>
    <tripinfo id="WS_38" depart="133.00" departLane="2_1_1" departPos="5.10" departSpeed="0.00" departDelay="0.00" arrival="199.50" arrivalLane="1_3_1" arrivalPos="186.40" arrivalSpeed="13.00" duration="66.50" routeLength="379.43" waitingTime="18.50" waitingCount="4" stopTime="0.00" timeLoss="36.11" rerouteNo="0" devices="tripinfo_WS_38" vType="cars" speedFactor="1.00" vaporized=""/>
    <tripinfo id="EN_31" depart="117.00" departLane="4_1_1" departPos="5.10" departSpeed="0.00" departDelay="0.00" arrival="201.50" arrivalLane="1_5_1" arrivalPos="186.40" arrivalSpeed="13.00" duration="84.50" routeLength="379.42" waitingTime="35.50" waitingCount="6" stopTime="0.00" timeLoss="53.80" rerouteNo="0" devices="tripinfo_EN_31" vType="cars" speedFactor="0.86" vaporized=""/>
    <tripinfo id="SN_39" depart="134.00" departLane="3_1_2" departPos="5.10" departSpeed="0.00" departDelay="0.00" arrival="203.00" arrivalLane="1_5_1" arrivalPos="186.40" arrivalSpeed="13.00" duration="69.00" routeLength="395.15" waitingTime="26.50" waitingCount="2" stopTime="0.00" timeLoss="38.55" rerouteNo="0" devices="tripinfo_SN_39" vType="cars" speedFactor="1.10" vaporized=""/>
    <tripinfo id="NS_41" depart="145.00" departLane="5_1_2" departPos="5.10" departSpeed="0.00" departDelay="0.00" arrival="203.00" arrivalLane="1_3_1" arrivalPos="186.40" arrivalSpeed="13.00" duration="58.00" routeLength="395.15" waitingTime="17.00" waitingCount="1" stopTime="0.00" timeLoss="27.55" rerouteNo="0" devices="tripinfo_NS_41" vType="cars" speedFactor="0.92" vaporized=""/>
    <tripinfo id="NS_43" depart="150.00" departLane="5_1_2" departPos="5.10" departSpeed="0.00" departDelay="0.00" arrival="204.50" arrivalLane="1_3_2" arrivalPos="186.40" arrivalSpeed="13.00" duration="54.50" routeLength="395.15" waitingTime="7.50" waitingCount="4" stopTime="0.00" timeLoss="23.98" rerouteNo="0" devices="tripinfo_NS_43" vType="cars" speedFactor="0.99" vaporized=""/>