<?xml version="1.0" encoding="UTF-8"?>

<!-- generated on 2025-03-18 14:38:44 by Eclipse SUMO GUI Version 1.20.0
<configuration xmlns:xsi="http://www.w3.org/2001/XMLSchema-instance" xsi:noNamespaceSchemaLocation="http://sumo.dlr.de/xsd/sumoConfiguration.xsd">

    <input>
        <net-file value="/home/naderian/Desktop/Shakiba/MMSVCC/environment/network_model/single_intersection_pedestrian_X.net.xml"/>
        <route-files value="/home/naderian/Desktop/Shakiba/MMSVCC/environment/network_model/single_intersection.rou.xml"/>
        <additional-files value="/home/naderian/Desktop/Shakiba/MMSVCC/environment/network_model/single_intersection_Concurrent.add.xml"/>
    </input>

    <output>
        <queue-output value="/home/naderian/Desktop/Shakiba/MMSVCC/environment/simulation_data/single_intersection/queues_multi_scale_symmetric_pene_50.xml"/>
        <tripinfo-output value="/home/naderian/Desktop/Shakiba/MMSVCC/environment/simulation_data/single_intersection/tripinfo_multi_scale_symmetric_pene_50.xml"/>
    </output>

    <time>
        <begin value="0"/>
        <step-length value="0.5"/>
    </time>

    <processing>
        <waiting-time-memory value="1000"/>
    </processing>

    <report>
        <verbose value="true"/>
        <no-step-log value="true"/>
    </report>

    <traci_server>
        <remote-port value="41209"/>
    </traci_server>

    <gui_only>
        <start value="true"/>
    </gui_only>

</configuration>
-->

<tripinfos xmlns:xsi="http://www.w3.org/2001/XMLSchema-instance" xsi:noNamespaceSchemaLocation="http://sumo.dlr.de/xsd/tripinfo_file.xsd">
</tripinfos>
 id="SN_0" depart="0.00" departLane="3_1_2" departPos="5.10" departSpeed="0.00" departDelay="0.00" arrival="35.50" arrivalLane="1_5_1" arrivalPos="186.40" arrivalSpeed="11.82" duration="35.50" routeLength="395.15" waitingTime="0.00" waitingCount="0" stopTime="0.00" timeLoss="4.91" rerouteNo="0" devices="tripinfo_SN_0" vType="cars" speedFactor="1.04" vaporized=""/>
    <tripinfo id="NS_1" depart="1.00" departLane="5_1_2" departPos="5.10" departSpeed="0.00" departDelay="0.00" arrival="38.00" arrivalLane="1_3_1" arrivalPos="186.40" arrivalSpeed="12.65" duration="37.00" routeLength="395.15" waitingTime="0.00" waitingCount="0" stopTime="0.00" timeLoss="6.21" rerouteNo="0" devices="tripinfo_NS_1" vType="cars" speedFactor="0.95" vaporized=""/>
    <tripinfo id="SN_2" depart="5.00" departLane="3_1_2" departPos="5.10" departSpeed="0.00" departDelay="0.00" arrival="40.00" arrivalLane="1_5_1" arrivalPos="186.40" arrivalSpeed="11.68" duration="35.00" routeLength="395.15" waitingTime="0.00" waitingCount="0" stopTime="0.00" timeLoss="4.52" rerouteNo="0" devices="tripinfo_SN_2" vType="cars" speedFactor="0.85" vaporized=""/>
    <tripinfo id="WE_0" depart="1.00" departLane="2_1_2" departPos="5.10" departSpeed="0.00" departDelay="0.00" arrival="50.00" arrivalLane="1_4_1" arrivalPos="186.40" arrivalSpeed="13.00" duration="49.00" routeLength="395.15" waitingTime="9.00" waitingCount="2" stopTime="0.00" timeLoss="18.55" rerouteNo="0" devices="tripinfo_WE_0" vType="cars" speedFactor="0.86" vaporized=""/>
    <tripinfo id="WE_1" depart="12.00" departLane="2_1_2" departPos="5.10" departSpeed="0.00" departDelay="0.00" arrival="51.00" arrivalLane="1_4_2" arrivalPos="186.40" arrivalSpeed="13.00" duration="39.00" routeLength="395.15" waitingTime="0.00" waitingCount="0" stopTime="0.00" timeLoss="8.27" rerouteNo="0" devices="tripinfo_WE_1" vType="cars" speedFactor="1.12" vaporized=""/>
    <tripinfo id="WS_3" depart="7.00" departLane="2_1_1" departPos="5.10" departSpeed="0.00" departDelay="0.00" arrival="54.00" arrivalLane="1_3_1" arrivalPos="186.40" arrivalSpeed="11.77" duration="47.00" routeLength="379.43" waitingTime="1.50" waitingCount="1" stopTime="0.00" timeLoss="16.75" rerouteNo="0" devices="tripinfo_WS_3" vType="cars" speedFactor="0.93" vaporized=""/>
    <tripinfo id="WS_6" depart="14.00" departLane="2_1_1" departPos="5.10" departSpeed="0.00" departDelay="0.00" arrival="56.50" arrivalLane="1_3_1" arrivalPos="186.40" arrivalSpeed="12.59" duration="42.50" routeLength="379.43" waitingTime="0.00" waitingCount="0" stopTime="0.00" timeLoss="12.43" rerouteNo="0" devices="tripinfo_WS_6" vType="cars" speedFactor="1.02" vaporized=""/>
    <tripinfo id="WE_2" depart="22.00" departLane="2_1_2" departPos="5.10" departSpeed="0.00" departDelay="0.00" arrival="57.50" arrivalLane="1_4_2" arrivalPos="186.40" arrivalSpeed="12.92" duration="35.50" routeLength="395.15" waitingTime="0.00" waitingCount="0" stopTime="0.00" timeLoss="4.81" rerouteNo="0" devices="tripinfo_WE_2" vType="cars" speedFactor="1.17" vaporized=""/>
    <tripinfo id="EN_10" depart="20.00" departLane="4_1_1" departPos="5.10" departSpeed="0.00" departDelay="0.00" arrival="58.50" arrivalLane="1_5_1" arrivalPos="186.40" arrivalSpeed="12.79" duration="38.50" routeLength="379.42" waitingTime="0.00" waitingCount="0" stopTime="0.00" timeLoss="8.56" rerouteNo="0" devices="tripinfo_EN_10" vType="cars" speedFactor="0.98" vaporized=""/>
    <tripinfo id="EW_0" depart="22.00" departLane="4_1_2" departPos="5.10" departSpeed="0.00" departDelay="0.00" arrival="61.00" arrivalLane="1_2_2" arrivalPos="186.40" arrivalSpeed="11.00" duration="39.00" routeLength="395.15" waitingTime="0.00" waitingCount="0" stopTime="0.00" timeLoss="8.45" rerouteNo="0" devices="tripinfo_EW_0" vType="cars" speedFactor="0.96" vaporized=""/>
    <tripinfo id="SE_4" depart="9.00" departLane="3_1_1" departPos="5.10" departSpeed="0.00" departDelay="0.00" arrival="66.50" arrivalLane="1_4_1" arrivalPos="186.40" arrivalSpeed="13.00" duration="57.50" routeLength="379.42" waitingTime="17.50" waitingCount="2" stopTime="0.00" timeLoss="27.38" rerouteNo="0" devices="tripinfo_SE_4" vType="cars" speedFactor="1.10" vaporized=""/>
    <tripinfo id="NS_8" depart="17.00" departLane="5_1_2" departPos="5.10" departSpeed="0.00" departDelay="0.00" arrival="67.00" arrivalLane="1_3_1" arrivalPos="186.40" arrivalSpeed="13.00" duration="50.00" routeLength="395.15" waitingTime="6.00" waitingCount="2" stopTime="0.00" timeLoss="19.55" rerouteNo="0" devices="tripinfo_NS_8" vType="cars" speedFactor="1.01" vaporized=""/>
    <tripinfo id="SN_9" depart="18.00" departLane="3_1_2" departPos="5.10" departSpeed="0.00" departDelay="0.00" arrival="67.00" arrivalLane="1_5_2" arrivalPos="186.40" arrivalSpeed="13.00" duration="49.00" routeLength="395.15" waitingTime="5.50" waitingCount="2" stopTime="0.00" timeLoss="18.55" rerouteNo="0" devices="tripinfo_SN_9" vType="cars" speedFactor="1.04" vaporized=""/>
    <tripinfo id="SN_12" depart="25.00" departLane="3_1_2" departPos="5.10" departSpeed="0.00" departDelay="0.00" arrival="68.50" arrivalLane="1_5_2" arrivalPos="186.40" arrivalSpeed="13.00" duration="43.50" routeLength="395.15" waitingTime="0.50" waitingCount="1" stopTime="0.00" timeLoss="13.09" rerouteNo="0" devices="tripinfo_SN_12" vType="cars" speedFactor="0.97" vaporized=""/>
    <tripinfo id="SN_15" depart="29.00" departLane="3_1_2" departPos="5.10" departSpeed="0.00" departDelay="0.00" arrival="68.50" arrivalLane="1_5_1" arrivalPos="186.40" arrivalSpeed="13.00" duration="39.50" routeLength="395.15" waitingTime="0.00" waitingCount="0" stopTime="0.00" timeLoss="9.11" rerouteNo="0" devices="tripinfo_SN_15" vType="cars" speedFactor="0.90" vaporized=""/>
    <tripinfo id="NS_5" depart="11.00" departLane="5_1_2" departPos="5.10" departSpeed="0.00" departDelay="0.00" arrival="71.00" arrivalLane="1_3_1" arrivalPos="186.40" arrivalSpeed="11.88" duration="60.00" routeLength="395.15" waitingTime="17.00" waitingCount="1" stopTime="0.00" timeLoss="29.37" rerouteNo="0" devices="tripinfo_NS_5" vType="cars" speedFactor="1.17" vaporized=""/>
    <tripinfo id="SN_17" depart="33.00" departLane="3_1_2" departPos="5.10" departSpeed="0.00" departDelay="0.00" arrival="71.00" arrivalLane="1_5_2" arrivalPos="186.40" arrivalSpeed="12.05" duration="38.00" routeLength="395.15" waitingTime="0.00" waitingCount="0" stopTime="0.00" timeLoss="7.55" rerouteNo="0" devices="tripinfo_SN_17" vType="cars" speedFactor="1.00" vaporized=""/>
    <tripinfo id="NS_13" depart="26.00" departLane="5_1_2" departPos="5.10" departSpeed="0.00" departDelay="0.00" arrival="71.50" arrivalLane="1_3_2" arrivalPos="186.40" arrivalSpeed="12.68" duration="45.50" routeLength="395.15" waitingTime="1.00" waitingCount="1" stopTime="0.00" timeLoss="15.05" rerouteNo="0" devices="tripinfo_NS_13" vType="cars" speedFactor="0.89" vaporized=""/>
    <tripinfo id="NS_11" depart="20.00" departLane="5_1_2" departPos="5.10" departSpeed="0.00" departDelay="0.00" arrival="72.50" arrivalLane="1_3_1" arrivalPos="186.40" arrivalSpeed="13.00" duration="52.50" routeLength="395.15" waitingTime="2.00" waitingCount="4" stopTime="0.00" timeLoss="21.84" rerouteNo="0" devices="tripinfo_NS_11" vType="cars" speedFactor="1.00" vaporized=""/>
    <tripinfo id="SN_18" depart="36.00" departLane="3_1_2" departPos="5.10" departSpeed="0.00" departDelay="0.00" arrival="72.50" arrivalLane="1_5_1" arrivalPos="186.40" arrivalSpeed="13.00" duration="36.50" routeLength="395.15" waitingTime="0.00" waitingCount="0" stopTime="0.00" timeLoss="5.96" rerouteNo="0" devices="tripinfo_SN_18" vType="cars" speedFactor="0.96" vaporized=""/>
    <tripinfo id="NS_16" depart="31.50" departLane="5_1_2" departPos="5.10" departSpeed="0.00" departDelay="1.50" arrival="73.50" arrivalLane="1_3_2" arrivalPos="186.40" arrivalSpeed="11.91" duration="42.00" routeLength="395.15" waitingTime="0.00" waitingCount="0" stopTime="0.00" timeLoss="11.47" rerouteNo="0" devices="tripinfo_NS_16" vType="cars" speedFactor="1.13" vaporized=""/>
    <tripinfo id="NS_14" depart="29.00" departLane="5_1_2" departPos="5.10" departSpeed="0.00" departDelay="2.00" arrival="74.00" arrivalLane="1_3_1" arrivalPos="186.40" arrivalSpeed="13.00" duration="45.00" routeLength="395.15" waitingTime="0.00" waitingCount="0" stopTime="0.00" timeLoss="14.36" rerouteNo="0" devices="tripinfo_NS_14" vType="cars" speedFactor="0.84" vaporized=""/>
    <tripinfo id="SE_19" depart="39.00" departLane="3_1_1" departPos="5.10" departSpeed="0.00" departDelay="0.00" arrival="75.00" arrivalLane="1_4_1" arrivalPos="186.40" arrivalSpeed="13.00" duration="36.00" routeLength="379.42" waitingTime="0.00" waitingCount="0" stopTime="0.00" timeLoss="6.10" rerouteNo="0" devices="tripinfo_SE_19" vType="cars" speedFactor="0.99" vaporized=""/>
    <tripinfo id="SN_20" depart="40.00" departLane="3_1_2" departPos="5.10" departSpeed="0.00" departDelay="0.00" arrival="75.50" arrivalLane="1_5_2" arrivalPos="186.40" arrivalSpeed="13.00" duration="35.50" routeLength="395.15" waitingTime="0.00" waitingCount="0" stopTime="0.00" timeLoss="4.78" rerouteNo="0" devices="tripinfo_SN_20" vType="cars" speedFactor="0.93" vaporized=""/>
    <tripinfo id="WE_4" depart="50.00" departLane="2_1_2" departPos="5.10" departSpeed="0.00" departDelay="0.00" arrival="88.50" arrivalLane="1_4_1" arrivalPos="186.40" arrivalSpeed="13.00" duration="38.50" routeLength="395.15" waitingTime="0.00" waitingCount="0" stopTime="0.00" timeLoss="7.96" rerouteNo="0" devices="tripinfo_WE_4" vType="cars" speedFactor="0.99" vaporized=""/>
    <tripinfo id="EW_1" depart="42.00" departLane="4_1_2" departPos="5.10" departSpeed="0.00" departDelay="0.00" arrival="89.00" arrivalLane="1_2_1" arrivalPos="186.40" arrivalSpeed="13.00" duration="47.00" routeLength="395.15" waitingTime="4.50" waitingCount="2" stopTime="0.00" timeLoss="16.55" rerouteNo="0" devices="tripinfo_EW_1" vType="cars" speedFactor="1.13" vaporized=""/>
    <tripinfo id="EW_2" depart="46.00" departLane="4_1_2" departPos="5.10" departSpeed="0.00" departDelay="0.00" arrival="91.00" arrivalLane="1_2_1" arrivalPos="186.40" arrivalSpeed="12.34" duration="45.00" routeLength="395.15" waitingTime="4.50" waitingCount="1" stopTime="0.00" timeLoss="14.55" rerouteNo="0" devices="tripinfo_EW_2" vType="cars" speedFactor="0.95" vaporized=""/>
    <tripinfo id="WE_3" depart="27.00" departLane="2_1_2" departPos="5.10" departSpeed="0.00" departDelay="0.00" arrival="92.50" arrivalLane="1_4_1" arrivalPos="186.40" arrivalSpeed="12.36" duration="65.50" routeLength="395.15" waitingTime="23.50" waitingCount="1" stopTime="0.00" timeLoss="34.85" rerouteNo="0" devices="tripinfo_WE_3" vType="cars" speedFactor="1.02" vaporized=""/>
    <tripinfo id="EW_3" depart="59.00" departLane="4_1_2" departPos="5.10" departSpeed="0.00" departDelay="0.00" arrival="95.00" arrivalLane="1_2_1" arrivalPos="186.40" arrivalSpeed="11.98" duration="36.00" routeLength="395.15" waitingTime="0.00" waitingCount="0" stopTime="0.00" timeLoss="5.56" rerouteNo="0" devices="tripinfo_EW_3" vType="cars" speedFactor="0.83" vaporized=""/>
    <tripinfo id="EW_4" depart="62.00" departLane="4_1_2" departPos="5.10" departSpeed="0.00" departDelay="0.00" arrival="98.50" arrivalLane="1_2_1" arrivalPos="186.40" arrivalSpeed="12.43" duration="36.50" routeLength="395.15" waitingTime="0.00" waitingCount="0" stopTime="0.00" timeLoss="5.95" rerouteNo="0" devices="tripinfo_EW_4" vType="cars" speedFactor="0.98" vaporized=""/>
    <tripinfo id="WE_5" depart="75.00" departLane="2_1_2" departPos="5.10" departSpeed="0.00" departDelay="0.00" arrival="110.00" arrivalLane="1_4_1" arrivalPos="186.40" arrivalSpeed="13.00" duration="35.00" routeLength="395.15" waitingTime="0.00" waitingCount="0" stopTime="0.00" timeLoss="4.24" rerouteNo="0" devices="tripinfo_WE_5" vType="cars" speedFactor="1.24" vaporized=""/>
    <tripinfo id="EW_5" depart="76.00" departLane="4_1_2" departPos="5.10" departSpeed="0.00" departDelay="0.00" arrival="112.50" arrivalLane="1_2_1" arrivalPos="186.40" arrivalSpeed="12.92" duration="36.50" routeLength="395.15" waitingTime="0.00" waitingCount="0" stopTime="0.00" timeLoss="5.96" rerouteNo="0" devices="tripinfo_EW_5" vType="cars" speedFactor="1.06" vaporized=""/>
    <tripinfo id="WE_6" depart="77.00" departLane="2_1_2" departPos="5.10" departSpeed="0.00" departDelay="0.00" arrival="114.50" arrivalLane="1_4_1" arrivalPos="186.40" arrivalSpeed="13.00" duration="37.50" routeLength="395.15" waitingTime="0.00" waitingCount="0" stopTime="0.00" timeLoss="6.98" rerouteNo="0" devices="tripinfo_WE_6" vType="cars" speedFactor="0.93" vaporized=""/>
    <tripinfo id="NS_22" depart="66.00" departLane="5_1_2" departPos="5.10" departSpeed="0.00" departDelay="0.00" arrival="121.00" arrivalLane="1_3_2" arrivalPos="186.40" arrivalSpeed="13.00" duration="55.00" routeLength="395.15" waitingTime="10.50" waitingCount="3" stopTime="0.00" timeLoss="24.55" rerouteNo="0" devices="tripinfo_NS_22" vType="cars" speedFactor="0.93" vaporized=""/>
    <tripinfo id="SN_25" depart="74.00" departLane="3_1_2" departPos="5.10" departSpeed="0.00" departDelay="0.00" arrival="121.00" arrivalLane="1_5_1" arrivalPos="186.40" arrivalSpeed="13.00" duration="47.00" routeLength="395.15" waitingTime="5.50" waitingCount="2" stopTime="0.00" timeLoss="16.55" rerouteNo="0" devices="tripinfo_SN_25" vType="cars" speedFactor="0.86" vaporized=""/>
    <tripinfo id="SN_28" depart="81.00" departLane="3_1_2" departPos="5.10" departSpeed="0.00" departDelay="0.00" arrival="121.00" arrivalLane="1_5_2" arrivalPos="186.40" arrivalSpeed="13.00" duration="40.00" routeLength="395.15" waitingTime="1.00" waitingCount="1" stopTime="0.00" timeLoss="9.55" rerouteNo="0" devices="tripinfo_SN_28" vType="cars" speedFactor="0.97" vaporized=""/>
    <tripinfo id="SN_30" depart="83.50" departLane="3_1_2" departPos="5.10" departSpeed="0.00" departDelay="0.50" arrival="122.50" arrivalLane="1_5_2" arrivalPos="186.40" arrivalSpeed="13.00" duration="39.00" routeLength="395.15" waitingTime="0.00" waitingCount="0" stopTime="0.00" timeLoss="8.59" rerouteNo="0" devices="tripinfo_SN_30" vType="cars" speedFactor="0.97" vaporized=""/>
    <tripinfo id="NS_26" depart="75.00" departLane="5_1_2" departPos="5.10" departSpeed="0.00" departDelay="0.00" arrival="124.50" arrivalLane="1_3_1" arrivalPos="186.40" arrivalSpeed="11.63" duration="49.50" routeLength="395.15" waitingTime="4.00" waitingCount="2" stopTime="0.00" timeLoss="19.05" rerouteNo="0" devices="tripinfo_NS_26" vType="cars" speedFactor="1.03" vaporized=""/>
    <tripinfo id="NS_29" depart="83.00" departLane="5_1_2" departPos="5.10" departSpeed="0.00" departDelay="0.00" arrival="124.50" arrivalLane="1_3_2" arrivalPos="186.40" arrivalSpeed="13.00" duration="41.50" routeLength="395.15" waitingTime="0.00" waitingCount="0" stopTime="0.00" timeLoss="10.97" rerouteNo="0" devices="tripinfo_NS_29" vType="cars" speedFactor="1.02" vaporized=""/>
    <tripinfo id="SN_31" depart="86.50" departLane="3_1_2" departPos="5.10" departSpeed="0.00" departDelay="2.50" arrival="124.50" arrivalLane="1_5_1" arrivalPos="186.40" arrivalSpeed="13.00" duration="38.00" routeLength="395.15" waitingTime="0.00" waitingCount="0" stopTime="0.00" timeLoss="7.42" rerouteNo="0" devices="tripinfo_SN_31" vType="cars" speedFactor="0.98" vaporized=""/>
    <tripinfo id="SN_33" depart="90.00" departLane="3_1_2" departPos="5.10" departSpeed="0.00" departDelay="0.00" arrival="127.50" arrivalLane="1_5_2" arrivalPos="186.40" arrivalSpeed="12.74" duration="37.50" routeLength="395.15" waitingTime="0.00" waitingCount="0" stopTime="0.00" timeLoss="6.67" rerouteNo="0" devices="tripinfo_SN_33" vType="cars" speedFactor="0.98" vaporized=""/>
    <tripinfo id="NS_32" depart="87.00" departLane="5_1_2" departPos="5.10" departSpeed="0.00" departDelay="0.00" arrival="128.50" arrivalLane="1_3_1" arrivalPos="186.40" arrivalSpeed="12.04" duration="41.50" routeLength="395.15" waitingTime="0.00" waitingCount="0" stopTime="0.00" timeLoss="11.11" rerouteNo="0" devices="tripinfo_NS_32" vType="cars" speedFactor="0.93" vaporized=""/>
    <tripinfo id="NW_21" depart="53.00" departLane="5_1_1" departPos="5.10" departSpeed="0.00" departDelay="0.00" arrival="133.00" arrivalLane="1_2_1" arrivalPos="186.40" arrivalSpeed="13.00" duration="80.00" routeLength="379.43" waitingTime="35.50" waitingCount="4" stopTime="0.00" timeLoss="49.72" rerouteNo="0" devices="tripinfo_NW_21" vType="cars" speedFactor="1.00" vaporized=""/>
    <tripinfo id="SN_34" depart="97.00" departLane="3_1_2" departPos="5.10" departSpeed="0.00" departDelay="0.00" arrival="133.00" arrivalLane="1_5_2" arrivalPos="186.40" arrivalSpeed="13.00" duration="36.00" routeLength="395.15" waitingTime="0.00" waitingCount="0" stopTime="0.00" timeLoss="5.21" rerouteNo="0" devices="tripinfo_SN_34" vType="cars" speedFactor="1.12" vaporized=""/>
    <tripinfo id="NW_23" depart="69.00" departLane="5_1_1" departPos="5.10" departSpeed="0.00" departDelay="0.00" arrival="137.00" arrivalLane="1_2_1" arrivalPos="186.40" arrivalSpeed="13.00" duration="68.00" routeLength="379.43" waitingTime="18.00" waitingCount="7" stopTime="0.00" timeLoss="37.83" rerouteNo="0" devices="tripinfo_NW_23" vType="cars" speedFactor="1.07" vaporized=""/>
    <tripinfo id="SE_27" depart="78.00" departLane="3_1_1" departPos="5.10" departSpeed="0.00" departDelay="0.00" arrival="139.50" arrivalLane="1_4_1" arrivalPos="186.40" arrivalSpeed="12.49" duration="61.50" routeLength="379.42" waitingTime="13.50" waitingCount="2" stopTime="0.00" timeLoss="31.10" rerouteNo="0" devices="tripinfo_SE_27" vType="cars" speedFactor="0.90" vaporized=""/>
    <tripinfo id="NW_36" depart="101.00" departLane="5_1_1" departPos="5.10" departSpeed="0.00" departDelay="0.00" arrival="140.50" arrivalLane="1_2_1" arrivalPos="186.40" arrivalSpeed="12.97" duration="39.50" routeLength="379.43" waitingTime="0.00" waitingCount="0" stopTime="0.00" timeLoss="9.52" rerouteNo="0" devices="tripinfo_NW_36" vType="cars" speedFactor="1.09" vaporized=""/>
    <tripinfo id="NS_37" depart="105.00" departLane="5_1_2" departPos="5.10" departSpeed="0.00" departDelay="0.00" arrival="141.00" arrivalLane="1_3_2" arrivalPos="186.40" arrivalSpeed="11.56" duration="36.00" routeLength="395.15" waitingTime="0.00" waitingCount="0" stopTime="0.00" timeLoss="5.42" rerouteNo="0" devices="tripinfo_NS_37" vType="cars" speedFactor="1.01" vaporized=""/>
    <tripinfo id="SN_38" depart="107.00" departLane="3_1_2" departPos="5.10" departSpeed="0.00" departDelay="0.00" arrival="145.00" arrivalLane="1_5_1" arrivalPos="186.40" arrivalSpeed="12.92" duration="38.00" routeLength="395.15" waitingTime="0.00" waitingCount="0" stopTime="0.00" timeLoss="7.18" rerouteNo="0" devices="tripinfo_SN_38" vType="cars" speedFactor="0.93" vaporized=""/>
    <tripinfo id="NS_41" depart="111.00" departLane="5_1_2" departPos="5.10" departSpeed="0.00" departDelay="0.00" arrival="146.00" arrivalLane="1_3_1" arrivalPos="186.40" arrivalSpeed="11.71" duration="35.00" routeLength="395.15" waitingTime="0.00" waitingCount="0" stopTime="0.00" timeLoss="4.38" rerouteNo="0" devices="tripinfo_NS_41" vType="cars" speedFactor="1.06" vaporized=""/>
    <tripinfo id="SN_40" depart="110.50" departLane="3_1_2" departPos="5.10" departSpeed="0.00" departDelay="0.50" arrival="147.50" arrivalLane="1_5_1" arrivalPos="186.40" arrivalSpeed="11.86" duration="37.00" routeLength="395.15" waitingTime="0.00" waitingCount="0" stopTime="0.00" timeLoss="6.61" rerouteNo="0" devices="tripinfo_SN_40" vType="cars" speedFactor="1.06" vaporized=""/>
    <tripinfo id="WE_7" depart="89.00" departLane="2_1_2" departPos="5.10" departSpeed="0.00" departDelay="0.00" arrival="161.00" arrivalLane="1_4_1" arrivalPos="186.40" arrivalSpeed="13.00" duration="72.00" routeLength="395.15" waitingTime="27.00" waitingCount="3" stopTime="0.00" timeLoss="41.61" rerouteNo="0" devices="tripinfo_WE_7" vType="cars" speedFactor="0.95" vaporized=""/>
    <tripinfo id="WE_8" depart="92.00" departLane="2_1_2" departPos="5.10" departSpeed="0.00" departDelay="0.00" arrival="161.50" arrivalLane="1_4_1" arrivalPos="186.40" arrivalSpeed="11.71" duration="69.50" routeLength="395.15" waitingTime="28.00" waitingCount="1" stopTime="0.00" timeLoss="38.89" rerouteNo="0" devices="tripinfo_WE_8" vType="cars" speedFactor="0.92" vaporized=""/>
    <tripinfo id="EN_39" depart="109.00" departLane="4_1_1" departPos="5.10" departSpeed="0.00" departDelay="0.00" arrival="161.50" arrivalLane="1_5_1" arrivalPos="186.40" arrivalSpeed="13.00" duration="52.50" routeLength="379.42" waitingTime="5.50" waitingCount="7" stopTime="0.00" timeLoss="22.26" rerouteNo="0" devices="tripinfo_EN_39" vType="cars" speedFactor="1.06" vaporized=""/>
    <tripinfo id="WE_9" depart="106.00" departLane="2_1_2" departPos="5.10" departSpeed="0.00" departDelay="0.00" arrival="163.00" arrivalLane="1_4_2" arrivalPos="186.40" arrivalSpeed="13.00" duration="57.00" routeLength="395.15" waitingTime="9.00" waitingCount="6" stopTime="0.00" timeLoss="26.31" rerouteNo="0" devices="tripinfo_WE_9" vType="cars" speedFactor="0.95" vaporized=""/>
    <tripinfo id="WE_10" depart="116.00" departLane="2_1_2" departPos="5.10" departSpeed="0.00" departDelay="0.00" arrival="164.00" arrivalLane="1_4_1" arrivalPos="186.40" arrivalSpeed="12.74" duration="48.00" routeLength="395.15" waitingTime="0.00" waitingCount="0" stopTime="0.00" timeLoss="17.14" rerouteNo="0" devices="tripinfo_WE_10" vType="cars" speedFactor="1.05" vaporized=""/>
    <tripinfo id="EW_6" depart="92.00" departLane="4_1_2" departPos="5.10" departSpeed="0.00" departDelay="0.00" arrival="164.50" arrivalLane="1_2_1" arrivalPos="186.40" arrivalSpeed="13.00" duration="72.50" routeLength="395.15" waitingTime="28.00" waitingCount="6" stopTime="0.00" timeLoss="41.71" rerouteNo="0" devices="tripinfo_EW_6" vType="cars" speedFactor="1.07" vaporized=""/>
    <tripinfo id="EW_7" depart="111.00" departLane="4_1_2" departPos="5.10" departSpeed="0.00" departDelay="0.00" arrival="164.50" arrivalLane="1_2_2" arrivalPos="186.40" arrivalSpeed="13.00" duration="53.50" routeLength="395.15" waitingTime="8.50" waitingCount="3" stopTime="0.00" timeLoss="22.71" rerouteNo="0" devices="tripinfo_EW_7" vType="cars" speedFactor="1.25" vaporized=""/>
    <tripinfo id="WE_11" depart="118.50" departLane="2_1_2" departPos="5.10" departSpeed="0.00" departDelay="1.50" arrival="164.50" arrivalLane="1_4_2" arrivalPos="186.40" arrivalSpeed="13.00" duration="46.00" routeLength="395.15" waitingTime="0.00" waitingCount="0" stopTime="0.00" timeLoss="15.33" rerouteNo="0" devices="tripinfo_WE_11" vType="cars" speedFactor="1.12" vaporized=""/>
    <tripinfo id="WE_12" depart="121.50" departLane="2_1_2" departPos="5.10" departSpeed="0.00" departDelay="3.50" arrival="165.50" arrivalLane="1_4_1" arrivalPos="186.40" arrivalSpeed="13.00" duration="44.00" routeLength="395.15" waitingTime="0.00" waitingCount="0" stopTime="0.00" timeLoss="13.15" rerouteNo="0" devices="tripinfo_WE_12" vType="cars" speedFactor="0.97" vaporized=""/>
    <tripinfo id="WE_13" depart="124.00" departLane="2_1_2" departPos="5.10" departSpeed="0.00" departDelay="5.00" arrival="166.00" arrivalLane="1_4_2" arrivalPos="186.40" arrivalSpeed="13.00" duration="42.00" routeLength="395.15" waitingTime="0.00" waitingCount="0" stopTime="0.00" timeLoss="11.35" rerouteNo="0" devices="tripinfo_WE_13" vType="cars" speedFactor="0.93" vaporized=""/>
    <tripinfo id="WE_14" depart="126.50" departLane="2_1_2" departPos="5.10" departSpeed="0.00" departDelay="4.50" arrival="167.00" arrivalLane="1_4_1" arrivalPos="186.40" arrivalSpeed="11.87" duration="40.50" routeLength="395.15" waitingTime="0.00" waitingCount="0" stopTime="0.00" timeLoss="10.09" rerouteNo="0" devices="tripinfo_WE_14" vType="cars" speedFactor="1.11" vaporized=""/>
    <tripinfo id="EW_8" depart="123.00" departLane="4_1_2" departPos="5.10" departSpeed="0.00" departDelay="0.00" arrival="167.50" arrivalLane="1_2_1" arrivalPos="186.40" arrivalSpeed="12.30" duration="44.50" routeLength="395.15" waitingTime="0.00" waitingCount="0" stopTime="0.00" timeLoss="14.08" rerouteNo="0" devices="tripinfo_EW_8" vType="cars" speedFactor="0.99" vaporized=""/>
    <tripinfo id="WE_15" depart="129.00" departLane="2_1_2" departPos="5.10" departSpeed="0.00" departDelay="4.00" arrival="167.50" arrivalLane="1_4_2" arrivalPos="186.40" arrivalSpeed="13.00" duration="38.50" routeLength="395.15" waitingTime="0.00" waitingCount="0" stopTime="0.00" timeLoss="7.95" rerouteNo="0" devices="tripinfo_WE_15" vType="cars" speedFactor="1.05" vaporized=""/>
    <tripinfo id="EW_9" depart="128.00" departLane="4_1_2" departPos="5.10" departSpeed="0.00" departDelay="0.00" arrival="169.00" arrivalLane="1_2_2" arrivalPos="186.40" arrivalSpeed="12.17" duration="41.00" routeLength="395.15" waitingTime="0.00" waitingCount="0" stopTime="0.00" timeLoss="10.61" rerouteNo="0" devices="tripinfo_EW_9" vType="cars" speedFactor="1.00" vaporized=""/>
    <personinfo id="person_WE_s.0" depart="1.92" type="DEFAULT_PEDTYPE" speedFactor="0.98" duration="173.00" waitingTime="0.00" timeLoss="9.71" traveltime="173.00">
        <walk depart="2.00" departPos="100.00" arrival="175.00" arrivalPos="93.20" duration="173.00" routeLength="221.17" timeLoss="9.71" maxSpeed="1.35"/>
    </personinfo>
    <personinfo id="person_SW_diag.0" depart="13.61" type="DEFAULT_PEDTYPE" speedFactor="1.17" duration="165.00" waitingTime="0.00" timeLoss="27.16" traveltime="165.00">
        <walk depart="14.00" departPos="100.00" arrival="179.00" arrivalPos="93.20" duration="165.00" routeLength="223.30" timeLoss="27.16" maxSpeed="1.62"/>
    </personinfo>
    <personinfo id="person_ES_diag.0" depart="6.72" type="DEFAULT_PEDTYPE" speedFactor="1.22" duration="172.00" waitingTime="0.00" timeLoss="37.66" traveltime="172.00">
        <walk depart="7.00" departPos="100.00" arrival="179.00" arrivalPos="93.20" duration="172.00" routeLength="228.50" timeLoss="37.66" maxSpeed="1.70"/>
    </personinfo>
    <tripinfo id="SN_47" depart="132.00" departLane="3_1_2" departPos="5.10" departSpeed="0.00" departDelay="0.00" arrival="180.00" arrivalLane="1_5_2" arrivalPos="186.40" arrivalSpeed="13.00" duration="48.00" routeLength="395.15" waitingTime="5.50" waitingCount="2" stopTime="0.00" timeLoss="17.55" rerouteNo="0" devices="tripinfo_SN_47" vType="cars" speedFactor="0.94" vaporized=""/>
    <tripinfo id="SN_45" depart="128.00" departLane="3_1_2" departPos="5.10" departSpeed="0.00" departDelay="0.00" arrival="181.50" arrivalLane="1_5_1" arrivalPos="186.40" arrivalSpeed="13.00" duration="53.50" routeLength="395.15" waitingTime="10.00" waitingCount="3" stopTime="0.00" timeLoss="23.05" rerouteNo="0" devices="tripinfo_SN_45" vType="cars" speedFactor="0.92" vaporized=""/>
    <tripinfo id="SN_50" depart="134.50" departLane="3_1_2" departPos="5.10" departSpeed="0.00" departDelay="0.50" arrival="181.50" arrivalLane="1_5_2" arrivalPos="186.40" arrivalSpeed="13.00" duration="47.00" routeLength="395.15" waitingTime="2.00" waitingCount="4" stopTime="0.00" timeLoss="16.59" rerouteNo="0" devices="tripinfo_SN_50" vType="cars" speedFactor="1.05" vaporized=""/>
    <tripinfo id="WS_48" depart="134.00" departLane="2_1_1" departPos="5.10" departSpeed="0.00" departDelay="0.00" arrival="182.00" arrivalLane="1_3_1" arrivalPos="186.40" arrivalSpeed="11.00" duration="48.00" routeLength="379.43" waitingTime="7.00" waitingCount="1" stopTime="0.00" timeLoss="17.77" rerouteNo="0" devices="tripinfo_WS_48" vType="cars" speedFactor="0.93" vaporized=""/>
    <tripinfo id="SE_51" depart="135.00" departLane="3_1_1" departPos="5.10" departSpeed="0.00" departDelay="0.00" arrival="182.00" arrivalLane="1_4_1" arrivalPos="186.40" arrivalSpeed="13.00" duration="47.00" routeLength="379.42" waitingTime="2.00" waitingCount="4" stopTime="0.00" timeLoss="17.36" rerouteNo="0" devices="tripinfo_SE_51" vType="cars" speedFactor="1.13" vaporized=""/>
    <tripinfo id="NS_46" depart="131.00" departLane="5_1_2" departPos="5.10" departSpeed="0.00" departDelay="0.00" arrival="183.00" arrivalLane="1_3_2" arrivalPos="186.40" arrivalSpeed="11.58" duration="52.00" routeLength="395.15" waitingTime="10.50" waitingCount="1" stopTime="0.00" timeLoss="21.28" rerouteNo="0" devices="tripinfo_NS_46" vType="cars" speedFactor="0.95" vaporized=""/>