<?xml version="1.0" encoding="UTF-8"?>

<!-- generated on 2025-06-21 14:46:15 by Eclipse SUMO GUI Version 1.22.0
<sumoConfiguration xmlns:xsi="http://www.w3.org/2001/XMLSchema-instance" xsi:noNamespaceSchemaLocation="http://sumo.dlr.de/xsd/sumoConfiguration.xsd">

    <input>
        <net-file value="/home/naderian/Desktop/Shakiba/MMSVCC/environment/network_model/single_intersection_pedestrian_X.net.xml"/>
        <route-files value="/home/naderian/Desktop/Shakiba/MMSVCC/environment/network_model/single_intersection.rou.xml"/>
        <additional-files value="/home/naderian/Desktop/Shakiba/MMSVCC/environment/network_model/single_intersection.add_actuated_(LPI).xml"/>
    </input>

    <output>
        <queue-output value="/home/naderian/Desktop/Shakiba/MMSVCC/environment/simulation_data/single_intersection/queues_actuated_symmetric_pene_100.xml"/>
        <tripinfo-output value="/home/naderian/Desktop/Shakiba/MMSVCC/environment/simulation_data/single_intersection/tripinfo_actuated_symmetric_pene_100.xml"/>
    </output>

    <time>
        <begin value="0"/>
        <step-length value="0.5"/>
    </time>

    <processing>
        <waiting-time-memory value="1000"/>
    </processing>

    <report>
        <verbose value="true"/>
        <no-step-log value="true"/>
    </report>

    <traci_server>
        <remote-port value="35633"/>
    </traci_server>

    <gui_only>
        <start value="true"/>
    </gui_only>

</sumoConfiguration>
-->

<tripinfos xmlns:xsi="http://www.w3.org/2001/XMLSchema-instance" xsi:noNamespaceSchemaLocation="http://sumo.dlr.de/xsd/tripinfo_file.xsd">
    <tripinfo id="NS_1" depart="1.00" departLane="5_1_2" departPos="5.10" departSpeed="0.00" departDelay="0.00" arrival="38.00" arrivalLane="1_3_1" arrivalPos="186.40" arrivalSpeed="12.33" duration="37.00" routeLength="395.15" waitingTime="0.00" waitingCount="0" stopTime="0.00" timeLoss="6.55" rerouteNo="0" devices="tripinfo_NS_1" vType="cars" speedFactor="1.15" vaporized=""/>
    <tripinfo id="SN_0" depart="0.00" departLane="3_1_2" departPos="5.10" departSpeed="0.00" departDelay="0.00" arrival="40.50" arrivalLane="1_5_1" arrivalPos="186.40" arrivalSpeed="12.96" duration="40.50" routeLength="395.15" waitingTime="0.00" waitingCount="0" stopTime="0.00" timeLoss="9.73" rerouteNo="0" devices="tripinfo_SN_0" vType="cars" speedFactor="1.02" vaporized=""/>
    <tripinfo id="SN_2" depart="5.00" departLane="3_1_2" departPos="5.10" departSpeed="0.00" departDelay="0.00" arrival="40.50" arrivalLane="1_5_2" arrivalPos="186.40" arrivalSpeed="11.73" duration="35.50" routeLength="395.15" waitingTime="0.00" waitingCount="0" stopTime="0.00" timeLoss="4.77" rerouteNo="0" devices="tripinfo_SN_2" vType="cars" speedFactor="1.03" vaporized=""/>
    <tripinfo id="SE_4" depart="9.00" departLane="3_1_1" departPos="5.10" departSpeed="0.00" departDelay="0.00" arrival="46.50" arrivalLane="1_4_1" arrivalPos="186.40" arrivalSpeed="11.81" duration="37.50" routeLength="379.42" waitingTime="0.00" waitingCount="0" stopTime="0.00" timeLoss="7.55" rerouteNo="0" devices="tripinfo_SE_4" vType="cars" speedFactor="1.12" vaporized=""/>
    <tripinfo id="NS_5" depart="11.00" departLane="5_1_2" departPos="5.10" departSpeed="0.00" departDelay="0.00" arrival="48.00" arrivalLane="1_3_1" arrivalPos="186.40" arrivalSpeed="11.52" duration="37.00" routeLength="395.15" waitingTime="0.00" waitingCount="0" stopTime="0.00" timeLoss="6.19" rerouteNo="0" devices="tripinfo_NS_5" vType="cars" speedFactor="1.01" vaporized=""/>
    <tripinfo id="NS_8" depart="17.00" departLane="5_1_2" departPos="5.10" departSpeed="0.00" departDelay="0.00" arrival="53.50" arrivalLane="1_3_1" arrivalPos="186.40" arrivalSpeed="11.77" duration="36.50" routeLength="395.15" waitingTime="0.00" waitingCount="0" stopTime="0.00" timeLoss="5.84" rerouteNo="0" devices="tripinfo_NS_8" vType="cars" speedFactor="1.04" vaporized=""/>
    <tripinfo id="SN_9" depart="18.00" departLane="3_1_2" departPos="5.10" departSpeed="0.00" departDelay="0.00" arrival="53.50" arrivalLane="1_5_1" arrivalPos="186.40" arrivalSpeed="12.96" duration="35.50" routeLength="395.15" waitingTime="0.00" waitingCount="0" stopTime="0.00" timeLoss="4.69" rerouteNo="0" devices="tripinfo_SN_9" vType="cars" speedFactor="1.23" vaporized=""/>
    <tripinfo id="EN_10" depart="20.00" departLane="4_1_1" departPos="5.10" departSpeed="0.00" departDelay="0.00" arrival="60.00" arrivalLane="1_5_1" arrivalPos="186.40" arrivalSpeed="12.58" duration="40.00" routeLength="379.42" waitingTime="0.00" waitingCount="0" stopTime="0.00" timeLoss="9.71" rerouteNo="0" devices="tripinfo_EN_10" vType="cars" speedFactor="1.01" vaporized=""/>
    <tripinfo id="EW_1" depart="42.00" departLane="4_1_2" departPos="5.10" departSpeed="0.00" departDelay="0.00" arrival="79.00" arrivalLane="1_2_2" arrivalPos="186.40" arrivalSpeed="11.56" duration="37.00" routeLength="395.15" waitingTime="0.00" waitingCount="0" stopTime="0.00" timeLoss="6.51" rerouteNo="0" devices="tripinfo_EW_1" vType="cars" speedFactor="1.04" vaporized=""/>
    <tripinfo id="WE_1" depart="12.00" departLane="2_1_2" departPos="5.10" departSpeed="0.00" departDelay="0.00" arrival="81.00" arrivalLane="1_4_2" arrivalPos="186.40" arrivalSpeed="11.77" duration="69.00" routeLength="395.15" waitingTime="29.00" waitingCount="1" stopTime="0.00" timeLoss="38.49" rerouteNo="0" devices="tripinfo_WE_1" vType="cars" speedFactor="1.03" vaporized=""/>
    <tripinfo id="EW_0" depart="22.00" departLane="4_1_2" departPos="5.10" departSpeed="0.00" departDelay="0.00" arrival="81.00" arrivalLane="1_2_1" arrivalPos="186.40" arrivalSpeed="12.26" duration="59.00" routeLength="395.15" waitingTime="19.00" waitingCount="1" stopTime="0.00" timeLoss="28.19" rerouteNo="0" devices="tripinfo_EW_0" vType="cars" speedFactor="1.00" vaporized=""/>
    <tripinfo id="EW_2" depart="46.00" departLane="4_1_2" departPos="5.10" departSpeed="0.00" departDelay="0.00" arrival="81.50" arrivalLane="1_2_2" arrivalPos="186.40" arrivalSpeed="11.57" duration="35.50" routeLength="395.15" waitingTime="0.00" waitingCount="0" stopTime="0.00" timeLoss="5.01" rerouteNo="0" devices="tripinfo_EW_2" vType="cars" speedFactor="0.96" vaporized=""/>
    <tripinfo id="WE_0" depart="1.00" departLane="2_1_2" departPos="5.10" departSpeed="0.00" departDelay="0.00" arrival="82.00" arrivalLane="1_4_1" arrivalPos="186.40" arrivalSpeed="12.58" duration="81.00" routeLength="395.15" waitingTime="40.00" waitingCount="1" stopTime="0.00" timeLoss="50.28" rerouteNo="0" devices="tripinfo_WE_0" vType="cars" speedFactor="1.06" vaporized=""/>
    <tripinfo id="WS_3" depart="7.00" departLane="2_1_1" departPos="5.10" departSpeed="0.00" departDelay="0.00" arrival="83.00" arrivalLane="1_3_1" arrivalPos="186.40" arrivalSpeed="12.03" duration="76.00" routeLength="379.43" waitingTime="32.00" waitingCount="2" stopTime="0.00" timeLoss="45.88" rerouteNo="0" devices="tripinfo_WS_3" vType="cars" speedFactor="0.82" vaporized=""/>
    <tripinfo id="WE_2" depart="22.00" departLane="2_1_2" departPos="5.10" departSpeed="0.00" departDelay="0.00" arrival="84.00" arrivalLane="1_4_2" arrivalPos="186.40" arrivalSpeed="12.41" duration="62.00" routeLength="395.15" waitingTime="17.00" waitingCount="1" stopTime="0.00" timeLoss="31.59" rerouteNo="0" devices="tripinfo_WE_2" vType="cars" speedFactor="1.02" vaporized=""/>
    <tripinfo id="WS_6" depart="14.00" departLane="2_1_1" departPos="5.10" departSpeed="0.00" departDelay="0.00" arrival="85.50" arrivalLane="1_3_1" arrivalPos="186.40" arrivalSpeed="12.94" duration="71.50" routeLength="379.43" waitingTime="26.00" waitingCount="1" stopTime="0.00" timeLoss="41.67" rerouteNo="0" devices="tripinfo_WS_6" vType="cars" speedFactor="1.07" vaporized=""/>
    <tripinfo id="WE_3" depart="27.00" departLane="2_1_2" departPos="5.10" departSpeed="0.00" departDelay="0.00" arrival="86.50" arrivalLane="1_4_2" arrivalPos="186.40" arrivalSpeed="12.59" duration="59.50" routeLength="395.15" waitingTime="14.00" waitingCount="1" stopTime="0.00" timeLoss="28.84" rerouteNo="0" devices="tripinfo_WE_3" vType="cars" speedFactor="1.16" vaporized=""/>
    <tripinfo id="WE_4" depart="50.00" departLane="2_1_2" departPos="5.10" departSpeed="0.00" departDelay="0.00" arrival="88.00" arrivalLane="1_4_1" arrivalPos="186.40" arrivalSpeed="11.56" duration="38.00" routeLength="395.15" waitingTime="0.00" waitingCount="0" stopTime="0.00" timeLoss="7.47" rerouteNo="0" devices="tripinfo_WE_4" vType="cars" speedFactor="1.00" vaporized=""/>
    <tripinfo id="WN_7" depart="16.00" departLane="2_1_3" departPos="5.10" departSpeed="0.00" departDelay="0.00" arrival="103.00" arrivalLane="1_5_2" arrivalPos="186.40" arrivalSpeed="11.78" duration="87.00" routeLength="392.22" waitingTime="44.00" waitingCount="1" stopTime="0.00" timeLoss="55.96" rerouteNo="0" devices="tripinfo_WN_7" vType="cars" speedFactor="0.96" vaporized=""/>
    <tripinfo id="ES_24" depart="73.00" departLane="4_1_3" departPos="5.10" departSpeed="0.00" departDelay="0.00" arrival="111.00" arrivalLane="1_3_2" arrivalPos="186.40" arrivalSpeed="12.75" duration="38.00" routeLength="392.22" waitingTime="0.00" waitingCount="0" stopTime="0.00" timeLoss="7.54" rerouteNo="0" devices="tripinfo_ES_24" vType="cars" speedFactor="1.08" vaporized=""/>
    <tripinfo id="NS_11" depart="20.00" departLane="5_1_2" departPos="5.10" departSpeed="0.00" departDelay="0.00" arrival="123.50" arrivalLane="1_3_1" arrivalPos="186.40" arrivalSpeed="11.96" duration="103.50" routeLength="395.15" waitingTime="62.00" waitingCount="1" stopTime="0.00" timeLoss="72.65" rerouteNo="0" devices="tripinfo_NS_11" vType="cars" speedFactor="1.12" vaporized=""/>
    <tripinfo id="SN_12" depart="25.00" departLane="3_1_2" departPos="5.10" departSpeed="0.00" departDelay="0.00" arrival="124.00" arrivalLane="1_5_1" arrivalPos="186.40" arrivalSpeed="12.90" duration="99.00" routeLength="395.15" waitingTime="57.50" waitingCount="1" stopTime="0.00" timeLoss="68.42" rerouteNo="0" devices="tripinfo_SN_12" vType="cars" speedFactor="0.95" vaporized=""/>
    <tripinfo id="NS_13" depart="26.00" departLane="5_1_2" departPos="5.10" departSpeed="0.00" departDelay="0.00" arrival="124.00" arrivalLane="1_3_2" arrivalPos="186.40" arrivalSpeed="12.54" duration="98.00" routeLength="395.15" waitingTime="56.50" waitingCount="1" stopTime="0.00" timeLoss="67.53" rerouteNo="0" devices="tripinfo_NS_13" vType="cars" speedFactor="1.11" vaporized=""/>
    <tripinfo id="SN_15" depart="29.00" departLane="3_1_2" departPos="5.10" departSpeed="0.00" departDelay="0.00" arrival="125.00" arrivalLane="1_5_2" arrivalPos="186.40" arrivalSpeed="12.23" duration="96.00" routeLength="395.15" waitingTime="54.00" waitingCount="1" stopTime="0.00" timeLoss="65.50" rerouteNo="0" devices="tripinfo_SN_15" vType="cars" speedFactor="1.13" vaporized=""/>
    <tripinfo id="NS_14" depart="29.00" departLane="5_1_2" departPos="5.10" departSpeed="0.00" departDelay="2.00" arrival="125.50" arrivalLane="1_3_1" arrivalPos="186.40" arrivalSpeed="12.35" duration="96.50" routeLength="395.15" waitingTime="51.50" waitingCount="1" stopTime="0.00" timeLoss="65.77" rerouteNo="0" devices="tripinfo_NS_14" vType="cars" speedFactor="0.94" vaporized=""/>
    <tripinfo id="SN_17" depart="33.00" departLane="3_1_2" departPos="5.10" departSpeed="0.00" departDelay="0.00" arrival="126.00" arrivalLane="1_5_1" arrivalPos="186.40" arrivalSpeed="12.99" duration="93.00" routeLength="395.15" waitingTime="48.00" waitingCount="1" stopTime="0.00" timeLoss="62.41" rerouteNo="0" devices="tripinfo_SN_17" vType="cars" speedFactor="1.14" vaporized=""/>
    <tripinfo id="NS_16" depart="32.00" departLane="5_1_2" departPos="5.10" departSpeed="0.00" departDelay="2.00" arrival="127.00" arrivalLane="1_3_2" arrivalPos="186.40" arrivalSpeed="12.36" duration="95.00" routeLength="395.15" waitingTime="48.00" waitingCount="1" stopTime="0.00" timeLoss="64.25" rerouteNo="0" devices="tripinfo_NS_16" vType="cars" speedFactor="0.73" vaporized=""/>
    <tripinfo id="SN_18" depart="36.00" departLane="3_1_2" departPos="5.10" departSpeed="0.00" departDelay="0.00" arrival="127.00" arrivalLane="1_5_2" arrivalPos="186.40" arrivalSpeed="11.73" duration="91.00" routeLength="395.15" waitingTime="45.00" waitingCount="1" stopTime="0.00" timeLoss="60.30" rerouteNo="0" devices="tripinfo_SN_18" vType="cars" speedFactor="0.89" vaporized=""/>
    <tripinfo id="SE_19" depart="39.00" departLane="3_1_1" departPos="5.10" departSpeed="0.00" departDelay="0.00" arrival="127.00" arrivalLane="1_4_1" arrivalPos="186.40" arrivalSpeed="12.36" duration="88.00" routeLength="379.42" waitingTime="42.50" waitingCount="1" stopTime="0.00" timeLoss="57.89" rerouteNo="0" devices="tripinfo_SE_19" vType="cars" speedFactor="1.00" vaporized=""/>
    <tripinfo id="NW_21" depart="53.00" departLane="5_1_1" departPos="5.10" departSpeed="0.00" departDelay="0.00" arrival="127.00" arrivalLane="1_2_1" arrivalPos="186.40" arrivalSpeed="12.24" duration="74.00" routeLength="379.43" waitingTime="29.00" waitingCount="1" stopTime="0.00" timeLoss="44.31" rerouteNo="0" devices="tripinfo_NW_21" vType="cars" speedFactor="1.07" vaporized=""/>
    <tripinfo id="NS_22" depart="66.00" departLane="5_1_2" departPos="5.10" departSpeed="0.00" departDelay="0.00" arrival="128.50" arrivalLane="1_3_1" arrivalPos="186.40" arrivalSpeed="12.11" duration="62.50" routeLength="395.15" waitingTime="16.00" waitingCount="1" stopTime="0.00" timeLoss="32.10" rerouteNo="0" devices="tripinfo_NS_22" vType="cars" speedFactor="1.12" vaporized=""/>
    <tripinfo id="SN_20" depart="40.00" departLane="3_1_2" departPos="5.10" departSpeed="0.00" departDelay="0.00" arrival="129.00" arrivalLane="1_5_2" arrivalPos="186.40" arrivalSpeed="12.89" duration="89.00" routeLength="395.15" waitingTime="41.00" waitingCount="1" stopTime="0.00" timeLoss="58.43" rerouteNo="0" devices="tripinfo_SN_20" vType="cars" speedFactor="0.97" vaporized=""/>
    <tripinfo id="NW_23" depart="69.00" departLane="5_1_1" departPos="5.10" departSpeed="0.00" departDelay="0.00" arrival="129.00" arrivalLane="1_2_1" arrivalPos="186.40" arrivalSpeed="12.57" duration="60.00" routeLength="379.43" waitingTime="13.50" waitingCount="1" stopTime="0.00" timeLoss="30.28" rerouteNo="0" devices="tripinfo_NW_23" vType="cars" speedFactor="1.18" vaporized=""/>
    <tripinfo id="NS_26" depart="75.00" departLane="5_1_2" departPos="5.10" departSpeed="0.00" departDelay="0.00" arrival="130.00" arrivalLane="1_3_2" arrivalPos="186.40" arrivalSpeed="11.53" duration="55.00" routeLength="395.15" waitingTime="9.00" waitingCount="1" stopTime="0.00" timeLoss="24.34" rerouteNo="0" devices="tripinfo_NS_26" vType="cars" speedFactor="0.88" vaporized=""/>
    <tripinfo id="SE_27" depart="78.00" departLane="3_1_1" departPos="5.10" departSpeed="0.00" departDelay="0.00" arrival="130.00" arrivalLane="1_4_1" arrivalPos="186.40" arrivalSpeed="11.99" duration="52.00" routeLength="379.42" waitingTime="5.00" waitingCount="1" stopTime="0.00" timeLoss="21.99" rerouteNo="0" devices="tripinfo_SE_27" vType="cars" speedFactor="1.13" vaporized=""/>
    <tripinfo id="SN_25" depart="74.00" departLane="3_1_2" departPos="5.10" departSpeed="0.00" departDelay="0.00" arrival="131.00" arrivalLane="1_5_1" arrivalPos="186.40" arrivalSpeed="12.74" duration="57.00" routeLength="395.15" waitingTime="9.00" waitingCount="2" stopTime="0.00" timeLoss="26.41" rerouteNo="0" devices="tripinfo_SN_25" vType="cars" speedFactor="0.91" vaporized=""/>
    <tripinfo id="NS_29" depart="83.00" departLane="5_1_2" departPos="5.10" departSpeed="0.00" departDelay="0.00" arrival="131.00" arrivalLane="1_3_1" arrivalPos="186.40" arrivalSpeed="12.38" duration="48.00" routeLength="395.15" waitingTime="2.50" waitingCount="1" stopTime="0.00" timeLoss="17.55" rerouteNo="0" devices="tripinfo_NS_29" vType="cars" speedFactor="0.91" vaporized=""/>
    <tripinfo id="NS_32" depart="87.00" departLane="5_1_2" departPos="5.10" departSpeed="0.00" departDelay="0.00" arrival="132.00" arrivalLane="1_3_2" arrivalPos="186.40" arrivalSpeed="12.38" duration="45.00" routeLength="395.15" waitingTime="0.00" waitingCount="0" stopTime="0.00" timeLoss="14.19" rerouteNo="0" devices="tripinfo_NS_32" vType="cars" speedFactor="0.98" vaporized=""/>
    <tripinfo id="SN_28" depart="81.00" departLane="3_1_2" departPos="5.10" departSpeed="0.00" departDelay="0.00" arrival="133.00" arrivalLane="1_5_2" arrivalPos="186.40" arrivalSpeed="12.13" duration="52.00" routeLength="395.15" waitingTime="4.00" waitingCount="1" stopTime="0.00" timeLoss="21.54" rerouteNo="0" devices="tripinfo_SN_28" vType="cars" speedFactor="1.05" vaporized=""/>
    <tripinfo id="SN_30" depart="83.50" departLane="3_1_2" departPos="5.10" departSpeed="0.00" departDelay="0.50" arrival="133.00" arrivalLane="1_5_1" arrivalPos="186.40" arrivalSpeed="12.79" duration="49.50" routeLength="395.15" waitingTime="0.00" waitingCount="0" stopTime="0.00" timeLoss="18.72" rerouteNo="0" devices="tripinfo_SN_30" vType="cars" speedFactor="1.00" vaporized=""/>
    <tripinfo id="SN_31" depart="86.50" departLane="3_1_2" departPos="5.10" departSpeed="0.00" departDelay="2.50" arrival="134.50" arrivalLane="1_5_1" arrivalPos="186.40" arrivalSpeed="11.61" duration="48.00" routeLength="395.15" waitingTime="0.00" waitingCount="0" stopTime="0.00" timeLoss="17.60" rerouteNo="0" devices="tripinfo_SN_31" vType="cars" speedFactor="1.03" vaporized=""/>
    <tripinfo id="SN_33" depart="90.00" departLane="3_1_2" departPos="5.10" departSpeed="0.00" departDelay="0.00" arrival="135.00" arrivalLane="1_5_2" arrivalPos="186.40" arrivalSpeed="12.61" duration="45.00" routeLength="395.15" waitingTime="0.00" waitingCount="0" stopTime="0.00" timeLoss="14.41" rerouteNo="0" devices="tripinfo_SN_33" vType="cars" speedFactor="1.09" vaporized=""/>
    <tripinfo id="EW_4" depart="62.00" departLane="4_1_2" departPos="5.10" departSpeed="0.00" departDelay="0.00" arrival="163.50" arrivalLane="1_2_2" arrivalPos="186.40" arrivalSpeed="11.65" duration="101.50" routeLength="395.15" waitingTime="60.00" waitingCount="1" stopTime="0.00" timeLoss="70.82" rerouteNo="0" devices="tripinfo_EW_4" vType="cars" speedFactor="1.06" vaporized=""/>
    <tripinfo id="WE_5" depart="75.00" departLane="2_1_2" departPos="5.10" departSpeed="0.00" departDelay="0.00" arrival="163.50" arrivalLane="1_4_1" arrivalPos="186.40" arrivalSpeed="12.20" duration="88.50" routeLength="395.15" waitingTime="47.00" waitingCount="1" stopTime="0.00" timeLoss="57.83" rerouteNo="0" devices="tripinfo_WE_5" vType="cars" speedFactor="1.14" vaporized=""/>
    <tripinfo id="EW_3" depart="59.00" departLane="4_1_2" departPos="5.10" departSpeed="0.00" departDelay="0.00" arrival="164.00" arrivalLane="1_2_1" arrivalPos="186.40" arrivalSpeed="12.68" duration="105.00" routeLength="395.15" waitingTime="64.00" waitingCount="1" stopTime="0.00" timeLoss="74.29" rerouteNo="0" devices="tripinfo_EW_3" vType="cars" speedFactor="0.93" vaporized=""/>
    <tripinfo id="WE_6" depart="77.50" departLane="2_1_2" departPos="5.10" departSpeed="0.00" departDelay="0.50" arrival="164.00" arrivalLane="1_4_2" arrivalPos="186.40" arrivalSpeed="11.95" duration="86.50" routeLength="395.15" waitingTime="46.00" waitingCount="1" stopTime="0.00" timeLoss="55.84" rerouteNo="0" devices="tripinfo_WE_6" vType="cars" speedFactor="0.99" vaporized=""/>
    <tripinfo id="EW_5" depart="76.00" departLane="4_1_2" departPos="5.10" departSpeed="0.00" departDelay="0.00" arrival="165.50" arrivalLane="1_2_2" arrivalPos="186.40" arrivalSpeed="11.67" duration="89.50" routeLength="395.15" waitingTime="44.00" waitingCount="1" stopTime="0.00" timeLoss="58.77" rerouteNo="0" devices="tripinfo_EW_5" vType="cars" speedFactor="1.08" vaporized=""/>
    <tripinfo id="WE_7" depart="89.00" departLane="2_1_2" departPos="5.10" departSpeed="0.00" departDelay="0.00" arrival="165.50" arrivalLane="1_4_1" arrivalPos="186.40" arrivalSpeed="12.74" duration="76.50" routeLength="395.15" waitingTime="32.00" waitingCount="1" stopTime="0.00" timeLoss="45.68" rerouteNo="0" devices="tripinfo_WE_7" vType="cars" speedFactor="0.94" vaporized=""/>
    <tripinfo id="WE_8" depart="92.00" departLane="2_1_2" departPos="5.10" departSpeed="0.00" departDelay="0.00" arrival="165.50" arrivalLane="1_4_2" arrivalPos="186.40" arrivalSpeed="12.87" duration="73.50" routeLength="395.15" waitingTime="28.50" waitingCount="1" stopTime="0.00" timeLoss="43.07" rerouteNo="0" devices="tripinfo_WE_8" vType="cars" speedFactor="0.90" vaporized=""/>
    <tripinfo id="EW_6" depart="92.00" departLane="4_1_2" departPos="5.10" departSpeed="0.00" departDelay="0.00" arrival="166.00" arrivalLane="1_2_1" arrivalPos="186.40" arrivalSpeed="12.08" duration="74.00" routeLength="395.15" waitingTime="26.00" waitingCount="1" stopTime="0.00" timeLoss="43.34" rerouteNo="0" devices="tripinfo_EW_6" vType="cars" speedFactor="0.89" vaporized=""/>
    <tripinfo id="EN_39" depart="109.00" departLane="4_1_1" departPos="5.10" departSpeed="0.00" departDelay="0.00" arrival="167.00" arrivalLane="1_5_1" arrivalPos="186.40" arrivalSpeed="11.72" duration="58.00" routeLength="379.42" waitingTime="14.00" waitingCount="1" stopTime="0.00" timeLoss="27.85" rerouteNo="0" devices="tripinfo_EN_39" vType="cars" speedFactor="1.06" vaporized=""/>
    <tripinfo id="WE_10" depart="116.00" departLane="2_1_2" departPos="5.10" departSpeed="0.00" departDelay="0.00" arrival="167.00" arrivalLane="1_4_1" arrivalPos="186.40" arrivalSpeed="11.85" duration="51.00" routeLength="395.15" waitingTime="1.50" waitingCount="1" stopTime="0.00" timeLoss="20.53" rerouteNo="0" devices="tripinfo_WE_10" vType="cars" speedFactor="1.08" vaporized=""/>
    <tripinfo id="WE_9" depart="106.00" departLane="2_1_2" departPos="5.10" departSpeed="0.00" departDelay="0.00" arrival="167.50" arrivalLane="1_4_2" arrivalPos="186.40" arrivalSpeed="12.54" duration="61.50" routeLength="395.15" waitingTime="15.50" waitingCount="1" stopTime="0.00" timeLoss="30.98" rerouteNo="0" devices="tripinfo_WE_9" vType="cars" speedFactor="1.03" vaporized=""/>
    <tripinfo id="EW_7" depart="111.00" departLane="4_1_2" departPos="5.10" departSpeed="0.00" departDelay="0.00" arrival="167.50" arrivalLane="1_2_2" arrivalPos="186.40" arrivalSpeed="12.25" duration="56.50" routeLength="395.15" waitingTime="10.50" waitingCount="1" stopTime="0.00" timeLoss="25.89" rerouteNo="0" devices="tripinfo_EW_7" vType="cars" speedFactor="1.03" vaporized=""/>
    <tripinfo id="WE_11" depart="119.00" departLane="2_1_2" departPos="5.10" departSpeed="0.00" departDelay="2.00" arrival="169.50" arrivalLane="1_4_2" arrivalPos="186.40" arrivalSpeed="12.63" duration="50.50" routeLength="395.15" waitingTime="3.00" waitingCount="1" stopTime="0.00" timeLoss="19.81" rerouteNo="0" devices="tripinfo_WE_11" vType="cars" speedFactor="0.94" vaporized=""/>
    <tripinfo id="EW_8" depart="123.00" departLane="4_1_2" departPos="5.10" departSpeed="0.00" departDelay="0.00" arrival="169.50" arrivalLane="1_2_1" arrivalPos="186.40" arrivalSpeed="11.98" duration="46.50" routeLength="395.15" waitingTime="0.50" waitingCount="1" stopTime="0.00" timeLoss="15.69" rerouteNo="0" devices="tripinfo_EW_8" vType="cars" speedFactor="0.90" vaporized=""/>
    <tripinfo id="WE_12" depart="122.00" departLane="2_1_2" departPos="5.10" departSpeed="0.00" departDelay="4.00" arrival="170.50" arrivalLane="1_4_1" arrivalPos="186.40" arrivalSpeed="12.30" duration="48.50" routeLength="395.15" waitingTime="0.00" waitingCount="0" stopTime="0.00" timeLoss="17.90" rerouteNo="0" devices="tripinfo_WE_12" vType="cars" speedFactor="0.92" vaporized=""/>
    <tripinfo id="WE_13" depart="125.00" departLane="2_1_2" departPos="5.10" departSpeed="0.00" departDelay="6.00" arrival="171.00" arrivalLane="1_4_2" arrivalPos="186.40" arrivalSpeed="12.69" duration="46.00" routeLength="395.15" waitingTime="0.00" waitingCount="0" stopTime="0.00" timeLoss="15.56" rerouteNo="0" devices="tripinfo_WE_13" vType="cars" speedFactor="1.08" vaporized=""/>
    <tripinfo id="EW_9" depart="128.00" departLane="4_1_2" departPos="5.10" departSpeed="0.00" departDelay="0.00" arrival="171.50" arrivalLane="1_2_1" arrivalPos="186.40" arrivalSpeed="12.81" duration="43.50" routeLength="395.15" waitingTime="0.00" waitingCount="0" stopTime="0.00" timeLoss="12.76" rerouteNo="0" devices="tripinfo_EW_9" vType="cars" speedFactor="1.10" vaporized=""/>
    <tripinfo id="WE_14" depart="128.50" departLane="2_1_2" departPos="5.10" departSpeed="0.00" departDelay="6.50" arrival="172.50" arrivalLane="1_4_1" arrivalPos="186.40" arrivalSpeed="11.77" duration="44.00" routeLength="395.15" waitingTime="0.00" waitingCount="0" stopTime="0.00" timeLoss="13.38" rerouteNo="0" devices="tripinfo_WE_14" vType="cars" speedFactor="0.89" vaporized=""/>
    <tripinfo id="WE_15" depart="131.50" departLane="2_1_2" departPos="5.10" departSpeed="0.00" departDelay="6.50" arrival="173.00" arrivalLane="1_4_2" arrivalPos="186.40" arrivalSpeed="12.15" duration="41.50" routeLength="395.15" waitingTime="0.00" waitingCount="0" stopTime="0.00" timeLoss="11.03" rerouteNo="0" devices="tripinfo_WE_15" vType="cars" speedFactor="0.93" vaporized=""/>
    <tripinfo id="WS_48" depart="134.00" departLane="2_1_1" departPos="5.10" departSpeed="0.00" departDelay="0.00" arrival="174.50" arrivalLane="1_3_1" arrivalPos="186.40" arrivalSpeed="11.64" duration="40.50" routeLength="379.43" waitingTime="0.00" waitingCount="0" stopTime="0.00" timeLoss="10.34" rerouteNo="0" devices="tripinfo_WS_48" vType="cars" speedFactor="0.87" vaporized=""/>
    <tripinfo id="NW_36" depart="101.00" departLane="5_1_1" departPos="5.10" departSpeed="0.00" departDelay="0.00" arrival="183.00" arrivalLane="1_2_1" arrivalPos="186.40" arrivalSpeed="11.77" duration="82.00" routeLength="379.43" waitingTime="43.00" waitingCount="1" stopTime="0.00" timeLoss="51.70" rerouteNo="0" devices="tripinfo_NW_36" vType="cars" speedFactor="0.92" vaporized=""/>
    <tripinfo id="WN_35" depart="99.00" departLane="2_1_3" departPos="5.10" departSpeed="0.00" departDelay="0.00" arrival="186.00" arrivalLane="1_5_2" arrivalPos="186.40" arrivalSpeed="12.12" duration="87.00" routeLength="392.22" waitingTime="45.00" waitingCount="1" stopTime="0.00" timeLoss="56.13" rerouteNo="0" devices="tripinfo_WN_35" vType="cars" speedFactor="0.96" vaporized=""/>
    <tripinfo id="ES_44" depart="128.00" departLane="4_1_3" departPos="5.10" departSpeed="0.00" departDelay="0.00" arrival="186.00" arrivalLane="1_3_2" arrivalPos="186.40" arrivalSpeed="12.35" duration="58.00" routeLength="392.22" waitingTime="15.50" waitingCount="1" stopTime="0.00" timeLoss="27.49" rerouteNo="0" devices="tripinfo_ES_44" vType="cars" speedFactor="1.07" vaporized=""/>
    <tripinfo id="ES_53" depart="148.00" departLane="4_1_3" departPos="5.10" departSpeed="0.00" departDelay="0.00" arrival="188.00" arrivalLane="1_3_2" arrivalPos="186.40" arrivalSpeed="12.36" duration="40.00" routeLength="392.22" waitingTime="0.00" waitingCount="0" stopTime="0.00" timeLoss="9.36" rerouteNo="0" devices="tripinfo_ES_53" vType="cars" speedFactor="1.07" vaporized=""/>
    <tripinfo id="ES_58" depart="155.00" departLane="4_1_3" departPos="5.10" departSpeed="0.00" departDelay="0.00" arrival="192.50" arrivalLane="1_3_2" arrivalPos="186.40" arrivalSpeed="12.39" duration="37.50" routeLength="392.22" waitingTime="0.00" waitingCount="0" stopTime="0.00" timeLoss="6.60" rerouteNo="0" devices="tripinfo_ES_58" vType="cars" speedFactor="0.98" vaporized=""/>
    <tripinfo id="NS_37" depart="105.00" departLane="5_1_2" departPos="5.10" departSpeed="0.00" departDelay="0.00" arrival="205.00" arrivalLane="1_3_1" arrivalPos="186.40" arrivalSpeed="11.66" duration="100.00" routeLength="395.15" waitingTime="60.00" waitingCount="1" stopTime="0.00" timeLoss="69.34" rerouteNo="0" devices="tripinfo_NS_37" vType="cars" speedFactor="1.09" vaporized=""/>
    <tripinfo id="SN_34" depart="97.00" departLane="3_1_2" departPos="5.10" departSpeed="0.00" departDelay="0.00" arrival="205.50" arrivalLane="1_5_1" arrivalPos="186.40" arrivalSpeed="12.37" duration="108.50" routeLength="395.15" waitingTime="65.00" waitingCount="1" stopTime="0.00" timeLoss="77.94" rerouteNo="0" devices="tripinfo_SN_34" vType="cars" speedFactor="1.14" vaporized=""/>
    <tripinfo id="SN_40" depart="110.00" departLane="3_1_2" departPos="5.10" departSpeed="0.00" departDelay="0.00" arrival="205.50" arrivalLane="1_5_2" arrivalPos="186.40" arrivalSpeed="12.37" duration="95.50" routeLength="395.15" waitingTime="54.50" waitingCount="1" stopTime="0.00" timeLoss="64.98" rerouteNo="0" devices="tripinfo_SN_40" vType="cars" speedFactor="1.10" vaporized=""/>
    <tripinfo id="NS_41" depart="111.00" departLane="5_1_2" departPos="5.10" departSpeed="0.00" departDelay="0.00" arrival="207.00" arrivalLane="1_3_1" arrivalPos="186.40" arrivalSpeed="11.81" duration="96.00" routeLength="395.15" waitingTime="47.50" waitingCount="3" stopTime="0.00" timeLoss="65.24" rerouteNo="0" devices="tripinfo_NS_41" vType="cars" speedFactor="1.03" vaporized=""/>
    <tripinfo id="NS_42" depart="122.00" departLane="5_1_2" departPos="5.10" departSpeed="0.00" departDelay="0.00" arrival="207.00" arrivalLane="1_3_2" arrivalPos="186.40" arrivalSpeed="12.68" duration="85.00" routeLength="395.15" waitingTime="41.00" waitingCount="1" stopTime="0.00" timeLoss="54.36" rerouteNo="0" devices="tripinfo_NS_42" vType="cars" speedFactor="0.97" vaporized=""/>
    <tripinfo id="SN_38" depart="107.00" departLane="3_1_2" departPos="5.10" departSpeed="0.00" departDelay="0.00" arrival="207.50" arrivalLane="1_5_1" arrivalPos="186.40" arrivalSpeed="12.15" duration="100.50" routeLength="395.15" waitingTime="55.50" waitingCount="1" stopTime="0.00" timeLoss="69.81" rerouteNo="0" devices="tripinfo_SN_38" vType="cars" speedFactor="1.08" vaporized=""/>