<?xml version="1.0" encoding="UTF-8"?>

<!-- generated on 2025-06-22 21:53:56 by Eclipse SUMO GUI Version 1.22.0
<sumoConfiguration xmlns:xsi="http://www.w3.org/2001/XMLSchema-instance" xsi:noNamespaceSchemaLocation="http://sumo.dlr.de/xsd/sumoConfiguration.xsd">

    <input>
        <net-file value="/home/naderian/Desktop/Shakiba/MMSVCC/environment/network_model/single_intersection_pedestrian_X.net.xml"/>
        <route-files value="/home/naderian/Desktop/Shakiba/MMSVCC/environment/network_model/single_intersection.rou.xml"/>
        <additional-files value="/home/naderian/Desktop/Shakiba/MMSVCC/environment/network_model/single_intersection.add_actuated_(permitted_right).xml"/>
    </input>

    <output>
        <queue-output value="/home/naderian/Desktop/Shakiba/MMSVCC/environment/simulation_data/single_intersection/queues_actuated_asymmetric_pene_100.xml"/>
        <tripinfo-output value="/home/naderian/Desktop/Shakiba/MMSVCC/environment/simulation_data/single_intersection/tripinfo_actuated_asymmetric_pene_100.xml"/>
    </output>

    <time>
        <begin value="0"/>
        <step-length value="0.5"/>
    </time>

    <processing>
        <waiting-time-memory value="1000"/>
    </processing>

    <report>
        <verbose value="true"/>
        <no-step-log value="true"/>
    </report>

    <traci_server>
        <remote-port value="42005"/>
    </traci_server>

    <gui_only>
        <start value="true"/>
    </gui_only>

</sumoConfiguration>
-->

<tripinfos xmlns:xsi="http://www.w3.org/2001/XMLSchema-instance" xsi:noNamespaceSchemaLocation="http://sumo.dlr.de/xsd/tripinfo_file.xsd">
    <tripinfo id="SN_0" depart="0.00" departLane="3_1_2" departPos="5.10" departSpeed="0.00" departDelay="0.00" arrival="35.50" arrivalLane="1_5_1" arrivalPos="186.40" arrivalSpeed="11.82" duration="35.50" routeLength="395.15" waitingTime="0.00" waitingCount="0" stopTime="0.00" timeLoss="4.99" rerouteNo="0" devices="tripinfo_SN_0" vType="cars" speedFactor="1.02" vaporized=""/>
    <tripinfo id="NS_1" depart="1.00" departLane="5_1_2" departPos="5.10" departSpeed="0.00" departDelay="0.00" arrival="38.00" arrivalLane="1_3_1" arrivalPos="186.40" arrivalSpeed="12.65" duration="37.00" routeLength="395.15" waitingTime="0.00" waitingCount="0" stopTime="0.00" timeLoss="6.30" rerouteNo="0" devices="tripinfo_NS_1" vType="cars" speedFactor="1.15" vaporized=""/>
    <tripinfo id="SN_2" depart="5.00" departLane="3_1_2" departPos="5.10" departSpeed="0.00" departDelay="0.00" arrival="40.00" arrivalLane="1_5_1" arrivalPos="186.40" arrivalSpeed="11.68" duration="35.00" routeLength="395.15" waitingTime="0.00" waitingCount="0" stopTime="0.00" timeLoss="4.48" rerouteNo="0" devices="tripinfo_SN_2" vType="cars" speedFactor="1.03" vaporized=""/>
    <tripinfo id="NE_6" depart="20.00" departLane="5_1_3" departPos="5.10" departSpeed="0.00" departDelay="0.00" arrival="60.50" arrivalLane="1_4_2" arrivalPos="186.40" arrivalSpeed="12.93" duration="40.50" routeLength="392.22" waitingTime="0.00" waitingCount="0" stopTime="0.00" timeLoss="9.92" rerouteNo="0" devices="tripinfo_NE_6" vType="cars" speedFactor="1.04" vaporized=""/>
    <tripinfo id="EW_1" depart="37.00" departLane="4_1_2" departPos="5.10" departSpeed="0.00" departDelay="0.00" arrival="73.00" arrivalLane="1_2_2" arrivalPos="186.40" arrivalSpeed="12.07" duration="36.00" routeLength="395.15" waitingTime="0.00" waitingCount="0" stopTime="0.00" timeLoss="5.37" rerouteNo="0" devices="tripinfo_EW_1" vType="cars" speedFactor="1.14" vaporized=""/>
    <tripinfo id="WE_1" depart="10.00" departLane="2_1_2" departPos="5.10" departSpeed="0.00" departDelay="0.00" arrival="75.00" arrivalLane="1_4_1" arrivalPos="186.40" arrivalSpeed="12.77" duration="65.00" routeLength="395.15" waitingTime="24.50" waitingCount="1" stopTime="0.00" timeLoss="34.31" rerouteNo="0" devices="tripinfo_WE_1" vType="cars" speedFactor="1.12" vaporized=""/>
    <tripinfo id="EW_0" depart="32.00" departLane="4_1_2" departPos="5.10" departSpeed="0.00" departDelay="0.00" arrival="75.00" arrivalLane="1_2_1" arrivalPos="186.40" arrivalSpeed="11.55" duration="43.00" routeLength="395.15" waitingTime="2.50" waitingCount="1" stopTime="0.00" timeLoss="12.49" rerouteNo="0" devices="tripinfo_EW_0" vType="cars" speedFactor="0.94" vaporized=""/>
    <tripinfo id="WE_2" depart="12.50" departLane="2_1_2" departPos="5.10" departSpeed="0.00" departDelay="0.50" arrival="76.50" arrivalLane="1_4_2" arrivalPos="186.40" arrivalSpeed="12.43" duration="64.00" routeLength="395.15" waitingTime="20.00" waitingCount="1" stopTime="0.00" timeLoss="33.39" rerouteNo="0" devices="tripinfo_WE_2" vType="cars" speedFactor="1.01" vaporized=""/>
    <tripinfo id="WE_0" depart="1.00" departLane="2_1_2" departPos="5.10" departSpeed="0.00" departDelay="0.00" arrival="77.00" arrivalLane="1_4_1" arrivalPos="186.40" arrivalSpeed="11.72" duration="76.00" routeLength="395.15" waitingTime="34.00" waitingCount="1" stopTime="0.00" timeLoss="45.22" rerouteNo="0" devices="tripinfo_WE_0" vType="cars" speedFactor="1.06" vaporized=""/>
    <tripinfo id="EW_2" depart="42.00" departLane="4_1_2" departPos="5.10" departSpeed="0.00" departDelay="0.00" arrival="78.00" arrivalLane="1_2_1" arrivalPos="186.40" arrivalSpeed="12.07" duration="36.00" routeLength="395.15" waitingTime="0.00" waitingCount="0" stopTime="0.00" timeLoss="5.22" rerouteNo="0" devices="tripinfo_EW_2" vType="cars" speedFactor="1.04" vaporized=""/>
    <tripinfo id="WS_3" depart="7.00" departLane="2_1_1" departPos="5.10" departSpeed="0.00" departDelay="0.00" arrival="78.50" arrivalLane="1_3_1" arrivalPos="186.40" arrivalSpeed="12.78" duration="71.50" routeLength="379.43" waitingTime="26.00" waitingCount="1" stopTime="0.00" timeLoss="40.91" rerouteNo="0" devices="tripinfo_WS_3" vType="cars" speedFactor="0.82" vaporized=""/>
    <tripinfo id="WE_3" depart="19.00" departLane="2_1_2" departPos="5.10" departSpeed="0.00" departDelay="0.00" arrival="78.50" arrivalLane="1_4_2" arrivalPos="186.40" arrivalSpeed="11.85" duration="59.50" routeLength="395.15" waitingTime="16.50" waitingCount="1" stopTime="0.00" timeLoss="28.96" rerouteNo="0" devices="tripinfo_WE_3" vType="cars" speedFactor="0.96" vaporized=""/>
    <tripinfo id="EW_3" depart="46.00" departLane="4_1_2" departPos="5.10" departSpeed="0.00" departDelay="0.00" arrival="81.00" arrivalLane="1_2_1" arrivalPos="186.40" arrivalSpeed="12.61" duration="35.00" routeLength="395.15" waitingTime="0.00" waitingCount="0" stopTime="0.00" timeLoss="4.52" rerouteNo="0" devices="tripinfo_EW_3" vType="cars" speedFactor="0.96" vaporized=""/>
    <tripinfo id="WE_5" depart="29.00" departLane="2_1_2" departPos="5.10" departSpeed="0.00" departDelay="0.00" arrival="81.50" arrivalLane="1_4_1" arrivalPos="186.40" arrivalSpeed="12.57" duration="52.50" routeLength="395.15" waitingTime="6.50" waitingCount="1" stopTime="0.00" timeLoss="21.80" rerouteNo="0" devices="tripinfo_WE_5" vType="cars" speedFactor="1.00" vaporized=""/>
    <tripinfo id="WS_5" depart="16.00" departLane="2_1_1" departPos="5.10" departSpeed="0.00" departDelay="0.00" arrival="82.00" arrivalLane="1_3_1" arrivalPos="186.40" arrivalSpeed="12.48" duration="66.00" routeLength="379.43" waitingTime="18.50" waitingCount="1" stopTime="0.00" timeLoss="35.85" rerouteNo="0" devices="tripinfo_WS_5" vType="cars" speedFactor="1.07" vaporized=""/>
    <tripinfo id="WE_6" depart="31.50" departLane="2_1_2" departPos="5.10" departSpeed="0.00" departDelay="1.50" arrival="83.50" arrivalLane="1_4_2" arrivalPos="186.40" arrivalSpeed="11.85" duration="52.00" routeLength="395.15" waitingTime="5.00" waitingCount="1" stopTime="0.00" timeLoss="21.41" rerouteNo="0" devices="tripinfo_WE_6" vType="cars" speedFactor="1.11" vaporized=""/>
    <tripinfo id="WE_4" depart="26.00" departLane="2_1_2" departPos="5.10" departSpeed="0.00" departDelay="0.00" arrival="84.00" arrivalLane="1_4_1" arrivalPos="186.40" arrivalSpeed="12.99" duration="58.00" routeLength="395.15" waitingTime="10.00" waitingCount="1" stopTime="0.00" timeLoss="27.13" rerouteNo="0" devices="tripinfo_WE_4" vType="cars" speedFactor="1.12" vaporized=""/>
    <tripinfo id="WE_7" depart="50.00" departLane="2_1_2" departPos="5.10" departSpeed="0.00" departDelay="0.00" arrival="86.00" arrivalLane="1_4_1" arrivalPos="186.40" arrivalSpeed="12.98" duration="36.00" routeLength="395.15" waitingTime="0.00" waitingCount="0" stopTime="0.00" timeLoss="5.37" rerouteNo="0" devices="tripinfo_WE_7" vType="cars" speedFactor="1.00" vaporized=""/>
    <tripinfo id="ES_4" depart="14.00" departLane="4_1_3" departPos="5.10" departSpeed="0.00" departDelay="0.00" arrival="100.50" arrivalLane="1_3_2" arrivalPos="186.40" arrivalSpeed="12.31" duration="86.50" routeLength="392.22" waitingTime="45.00" waitingCount="1" stopTime="0.00" timeLoss="55.76" rerouteNo="0" devices="tripinfo_ES_4" vType="cars" speedFactor="1.03" vaporized=""/>
    <tripinfo id="NS_7" depart="22.00" departLane="5_1_2" departPos="5.10" departSpeed="0.00" departDelay="0.00" arrival="115.50" arrivalLane="1_3_1" arrivalPos="186.40" arrivalSpeed="12.25" duration="93.50" routeLength="395.15" waitingTime="52.50" waitingCount="1" stopTime="0.00" timeLoss="62.90" rerouteNo="0" devices="tripinfo_NS_7" vType="cars" speedFactor="1.23" vaporized=""/>
    <tripinfo id="SN_8" depart="25.00" departLane="3_1_2" departPos="5.10" departSpeed="0.00" departDelay="0.00" arrival="115.50" arrivalLane="1_5_1" arrivalPos="186.40" arrivalSpeed="12.75" duration="90.50" routeLength="395.15" waitingTime="50.50" waitingCount="1" stopTime="0.00" timeLoss="59.89" rerouteNo="0" devices="tripinfo_SN_8" vType="cars" speedFactor="1.01" vaporized=""/>
    <tripinfo id="NS_12" depart="34.00" departLane="5_1_2" departPos="5.10" departSpeed="0.00" departDelay="0.00" arrival="116.00" arrivalLane="1_3_1" arrivalPos="186.40" arrivalSpeed="12.94" duration="82.00" routeLength="395.15" waitingTime="39.50" waitingCount="1" stopTime="0.00" timeLoss="51.29" rerouteNo="0" devices="tripinfo_NS_12" vType="cars" speedFactor="1.13" vaporized=""/>
    <tripinfo id="SN_10" depart="30.50" departLane="3_1_2" departPos="5.10" departSpeed="0.00" departDelay="1.50" arrival="116.50" arrivalLane="1_5_1" arrivalPos="186.40" arrivalSpeed="11.72" duration="86.00" routeLength="395.15" waitingTime="45.50" waitingCount="1" stopTime="0.00" timeLoss="55.48" rerouteNo="0" devices="tripinfo_SN_10" vType="cars" speedFactor="0.95" vaporized=""/>
    <tripinfo id="NW_17" depart="53.00" departLane="5_1_1" departPos="5.10" departSpeed="0.00" departDelay="0.00" arrival="117.50" arrivalLane="1_2_1" arrivalPos="186.40" arrivalSpeed="12.94" duration="64.50" routeLength="379.43" waitingTime="20.00" waitingCount="1" stopTime="0.00" timeLoss="34.77" rerouteNo="0" devices="tripinfo_NW_17" vType="cars" speedFactor="1.07" vaporized=""/>
    <tripinfo id="NS_19" depart="66.00" departLane="5_1_2" departPos="5.10" departSpeed="0.00" departDelay="0.00" arrival="118.00" arrivalLane="1_3_2" arrivalPos="186.40" arrivalSpeed="12.39" duration="52.00" routeLength="395.15" waitingTime="6.50" waitingCount="1" stopTime="0.00" timeLoss="21.33" rerouteNo="0" devices="tripinfo_NS_19" vType="cars" speedFactor="1.12" vaporized=""/>
    <tripinfo id="SN_11" depart="33.00" departLane="3_1_2" departPos="5.10" departSpeed="0.00" departDelay="3.00" arrival="118.50" arrivalLane="1_5_2" arrivalPos="186.40" arrivalSpeed="11.85" duration="85.50" routeLength="395.15" waitingTime="40.50" waitingCount="1" stopTime="0.00" timeLoss="54.78" rerouteNo="0" devices="tripinfo_SN_11" vType="cars" speedFactor="1.16" vaporized=""/>
    <tripinfo id="SN_9" depart="28.00" departLane="3_1_2" departPos="5.10" departSpeed="0.00" departDelay="2.00" arrival="119.00" arrivalLane="1_5_1" arrivalPos="186.40" arrivalSpeed="12.75" duration="91.00" routeLength="395.15" waitingTime="45.00" waitingCount="1" stopTime="0.00" timeLoss="60.32" rerouteNo="0" devices="tripinfo_SN_9" vType="cars" speedFactor="1.02" vaporized=""/>
    <tripinfo id="NW_20" depart="69.00" departLane="5_1_1" departPos="5.10" departSpeed="0.00" departDelay="0.00" arrival="119.50" arrivalLane="1_2_1" arrivalPos="186.40" arrivalSpeed="11.74" duration="50.50" routeLength="379.43" waitingTime="6.00" waitingCount="1" stopTime="0.00" timeLoss="20.67" rerouteNo="0" devices="tripinfo_NW_20" vType="cars" speedFactor="1.18" vaporized=""/>
    <tripinfo id="SN_14" depart="38.00" departLane="3_1_2" departPos="5.10" departSpeed="0.00" departDelay="0.00" arrival="120.00" arrivalLane="1_5_2" arrivalPos="186.40" arrivalSpeed="12.63" duration="82.00" routeLength="395.15" waitingTime="36.00" waitingCount="2" stopTime="0.00" timeLoss="51.60" rerouteNo="0" devices="tripinfo_SN_14" vType="cars" speedFactor="0.89" vaporized=""/>
    <tripinfo id="NS_24" depart="84.00" departLane="5_1_2" departPos="5.10" departSpeed="0.00" departDelay="0.00" arrival="120.50" arrivalLane="1_3_1" arrivalPos="186.40" arrivalSpeed="12.58" duration="36.50" routeLength="395.15" waitingTime="0.00" waitingCount="0" stopTime="0.00" timeLoss="5.85" rerouteNo="0" devices="tripinfo_NS_24" vType="cars" speedFactor="1.05" vaporized=""/>
    <tripinfo id="SE_13" depart="36.00" departLane="3_1_1" departPos="5.10" departSpeed="0.00" departDelay="0.00" arrival="121.50" arrivalLane="1_4_1" arrivalPos="186.40" arrivalSpeed="12.89" duration="85.50" routeLength="379.42" waitingTime="36.50" waitingCount="1" stopTime="0.00" timeLoss="55.03" rerouteNo="0" devices="tripinfo_SE_13" vType="cars" speedFactor="0.73" vaporized=""/>
    <tripinfo id="SN_16" depart="41.00" departLane="3_1_2" departPos="5.10" departSpeed="0.00" departDelay="1.00" arrival="123.00" arrivalLane="1_5_1" arrivalPos="186.40" arrivalSpeed="12.39" duration="82.00" routeLength="395.15" waitingTime="33.00" waitingCount="1" stopTime="0.00" timeLoss="51.56" rerouteNo="0" devices="tripinfo_SN_16" vType="cars" speedFactor="0.97" vaporized=""/>
    <tripinfo id="SE_15" depart="39.00" departLane="3_1_1" departPos="5.10" departSpeed="0.00" departDelay="0.00" arrival="123.50" arrivalLane="1_4_2" arrivalPos="186.40" arrivalSpeed="11.71" duration="84.50" routeLength="379.42" waitingTime="35.00" waitingCount="1" stopTime="0.00" timeLoss="54.53" rerouteNo="0" devices="tripinfo_SE_15" vType="cars" speedFactor="1.00" vaporized=""/>
    <tripinfo id="SN_18" depart="60.00" departLane="3_1_2" departPos="5.10" departSpeed="0.00" departDelay="0.00" arrival="125.50" arrivalLane="1_5_2" arrivalPos="186.40" arrivalSpeed="12.04" duration="65.50" routeLength="395.15" waitingTime="16.50" waitingCount="1" stopTime="0.00" timeLoss="35.09" rerouteNo="0" devices="tripinfo_SN_18" vType="cars" speedFactor="0.93" vaporized=""/>
    <tripinfo id="SN_21" depart="75.00" departLane="3_1_2" departPos="5.10" departSpeed="0.00" departDelay="0.00" arrival="126.00" arrivalLane="1_5_1" arrivalPos="186.40" arrivalSpeed="12.52" duration="51.00" routeLength="395.15" waitingTime="0.00" waitingCount="0" stopTime="0.00" timeLoss="20.38" rerouteNo="0" devices="tripinfo_SN_21" vType="cars" speedFactor="1.08" vaporized=""/>
    <tripinfo id="SN_23" depart="83.00" departLane="3_1_2" departPos="5.10" departSpeed="0.00" departDelay="0.00" arrival="128.00" arrivalLane="1_5_2" arrivalPos="186.40" arrivalSpeed="12.54" duration="45.00" routeLength="395.15" waitingTime="0.00" waitingCount="0" stopTime="0.00" timeLoss="14.34" rerouteNo="0" devices="tripinfo_SN_23" vType="cars" speedFactor="0.99" vaporized=""/>
    <tripinfo id="NS_25" depart="92.00" departLane="5_1_2" departPos="5.10" departSpeed="0.00" departDelay="0.00" arrival="128.00" arrivalLane="1_3_1" arrivalPos="186.40" arrivalSpeed="12.33" duration="36.00" routeLength="395.15" waitingTime="0.00" waitingCount="0" stopTime="0.00" timeLoss="5.40" rerouteNo="0" devices="tripinfo_NS_25" vType="cars" speedFactor="1.03" vaporized=""/>
    <tripinfo id="WS_22" depart="79.00" departLane="2_1_1" departPos="5.10" departSpeed="0.00" departDelay="0.00" arrival="141.50" arrivalLane="1_3_1" arrivalPos="186.40" arrivalSpeed="12.92" duration="62.50" routeLength="379.43" waitingTime="22.50" waitingCount="1" stopTime="0.00" timeLoss="32.58" rerouteNo="0" devices="tripinfo_WS_22" vType="cars" speedFactor="1.14" vaporized=""/>
    <tripinfo id="EW_5" depart="82.00" departLane="4_1_2" departPos="5.10" departSpeed="0.00" departDelay="0.00" arrival="157.00" arrivalLane="1_2_2" arrivalPos="186.40" arrivalSpeed="12.41" duration="75.00" routeLength="395.15" waitingTime="35.00" waitingCount="1" stopTime="0.00" timeLoss="44.31" rerouteNo="0" devices="tripinfo_EW_5" vType="cars" speedFactor="0.88" vaporized=""/>
    <tripinfo id="EW_4" depart="62.00" departLane="4_1_2" departPos="5.10" departSpeed="0.00" departDelay="0.00" arrival="157.50" arrivalLane="1_2_1" arrivalPos="186.40" arrivalSpeed="12.91" duration="95.50" routeLength="395.15" waitingTime="55.00" waitingCount="1" stopTime="0.00" timeLoss="64.95" rerouteNo="0" devices="tripinfo_EW_4" vType="cars" speedFactor="1.06" vaporized=""/>
    <tripinfo id="WE_8" depart="78.00" departLane="2_1_2" departPos="5.10" departSpeed="0.00" departDelay="0.00" arrival="158.00" arrivalLane="1_4_2" arrivalPos="186.40" arrivalSpeed="12.86" duration="80.00" routeLength="395.15" waitingTime="39.00" waitingCount="1" stopTime="0.00" timeLoss="49.41" rerouteNo="0" devices="tripinfo_WE_8" vType="cars" speedFactor="0.91" vaporized=""/>
    <tripinfo id="WE_10" depart="86.00" departLane="2_1_2" departPos="5.10" departSpeed="0.00" departDelay="2.00" arrival="158.50" arrivalLane="1_4_1" arrivalPos="186.40" arrivalSpeed="12.76" duration="72.50" routeLength="395.15" waitingTime="22.50" waitingCount="2" stopTime="0.00" timeLoss="42.01" rerouteNo="0" devices="tripinfo_WE_10" vType="cars" speedFactor="1.13" vaporized=""/>
    <tripinfo id="EN_26" depart="99.00" departLane="4_1_1" departPos="5.10" departSpeed="0.00" departDelay="0.00" arrival="159.00" arrivalLane="1_5_1" arrivalPos="186.40" arrivalSpeed="12.34" duration="60.00" routeLength="379.42" waitingTime="16.00" waitingCount="1" stopTime="0.00" timeLoss="29.90" rerouteNo="0" devices="tripinfo_EN_26" vType="cars" speedFactor="0.90" vaporized=""/>
    <tripinfo id="EW_6" depart="91.00" departLane="4_1_2" departPos="5.10" departSpeed="0.00" departDelay="0.00" arrival="159.50" arrivalLane="1_2_1" arrivalPos="186.40" arrivalSpeed="12.78" duration="68.50" routeLength="395.15" waitingTime="23.50" waitingCount="1" stopTime="0.00" timeLoss="37.79" rerouteNo="0" devices="tripinfo_EW_6" vType="cars" speedFactor="1.00" vaporized=""/>
    <tripinfo id="WE_9" depart="83.00" departLane="2_1_2" departPos="5.10" departSpeed="0.00" departDelay="0.00" arrival="160.00" arrivalLane="1_4_2" arrivalPos="186.40" arrivalSpeed="12.15" duration="77.00" routeLength="395.15" waitingTime="32.50" waitingCount="1" stopTime="0.00" timeLoss="46.32" rerouteNo="0" devices="tripinfo_WE_9" vType="cars" speedFactor="1.08" vaporized=""/>
    <tripinfo id="WE_12" depart="98.00" departLane="2_1_2" departPos="5.10" departSpeed="0.00" departDelay="0.00" arrival="161.00" arrivalLane="1_4_1" arrivalPos="186.40" arrivalSpeed="12.80" duration="63.00" routeLength="395.15" waitingTime="11.00" waitingCount="2" stopTime="0.00" timeLoss="32.19" rerouteNo="0" devices="tripinfo_WE_12" vType="cars" speedFactor="0.94" vaporized=""/>
    <tripinfo id="WE_11" depart="89.50" departLane="2_1_2" departPos="5.10" departSpeed="0.00" departDelay="4.50" arrival="162.00" arrivalLane="1_4_2" arrivalPos="186.40" arrivalSpeed="12.02" duration="72.50" routeLength="395.15" waitingTime="25.50" waitingCount="1" stopTime="0.00" timeLoss="41.68" rerouteNo="0" devices="tripinfo_WE_11" vType="cars" speedFactor="0.91" vaporized=""/>
    <tripinfo id="EW_7" depart="96.00" departLane="4_1_2" departPos="5.10" departSpeed="0.00" departDelay="0.00" arrival="162.00" arrivalLane="1_2_2" arrivalPos="186.40" arrivalSpeed="12.92" duration="66.00" routeLength="395.15" waitingTime="19.00" waitingCount="1" stopTime="0.00" timeLoss="35.30" rerouteNo="0" devices="tripinfo_EW_7" vType="cars" speedFactor="0.98" vaporized=""/>
    <tripinfo id="EW_8" depart="99.00" departLane="4_1_2" departPos="5.10" departSpeed="0.00" departDelay="1.00" arrival="162.00" arrivalLane="1_2_1" arrivalPos="186.40" arrivalSpeed="12.10" duration="63.00" routeLength="395.15" waitingTime="12.50" waitingCount="2" stopTime="0.00" timeLoss="32.19" rerouteNo="0" devices="tripinfo_EW_8" vType="cars" speedFactor="1.09" vaporized=""/>
    <tripinfo id="EW_9" depart="108.00" departLane="4_1_2" departPos="5.10" departSpeed="0.00" departDelay="0.00" arrival="164.00" arrivalLane="1_2_2" arrivalPos="186.40" arrivalSpeed="12.95" duration="56.00" routeLength="395.15" waitingTime="9.50" waitingCount="1" stopTime="0.00" timeLoss="25.59" rerouteNo="0" devices="tripinfo_EW_9" vType="cars" speedFactor="0.96" vaporized=""/>
    <tripinfo id="EW_10" depart="112.00" departLane="4_1_2" departPos="5.10" departSpeed="0.00" departDelay="0.00" arrival="164.00" arrivalLane="1_2_1" arrivalPos="186.40" arrivalSpeed="11.84" duration="52.00" routeLength="395.15" waitingTime="5.50" waitingCount="1" stopTime="0.00" timeLoss="21.18" rerouteNo="0" devices="tripinfo_EW_10" vType="cars" speedFactor="1.03" vaporized=""/>
    <tripinfo id="WE_13" depart="121.00" departLane="2_1_2" departPos="5.10" departSpeed="0.00" departDelay="0.00" arrival="164.00" arrivalLane="1_4_1" arrivalPos="186.40" arrivalSpeed="12.45" duration="43.00" routeLength="395.15" waitingTime="0.00" waitingCount="0" stopTime="0.00" timeLoss="12.22" rerouteNo="0" devices="tripinfo_WE_13" vType="cars" speedFactor="1.03" vaporized=""/>
    <tripinfo id="EN_31" depart="117.00" departLane="4_1_1" departPos="5.10" departSpeed="0.00" departDelay="0.00" arrival="165.50" arrivalLane="1_5_1" arrivalPos="186.40" arrivalSpeed="12.74" duration="48.50" routeLength="379.42" waitingTime="0.50" waitingCount="1" stopTime="0.00" timeLoss="18.53" rerouteNo="0" devices="tripinfo_EN_31" vType="cars" speedFactor="1.06" vaporized=""/>
    <tripinfo id="WE_14" depart="123.50" departLane="2_1_2" departPos="5.10" departSpeed="0.00" departDelay="0.50" arrival="165.50" arrivalLane="1_4_1" arrivalPos="186.40" arrivalSpeed="11.89" duration="42.00" routeLength="395.15" waitingTime="0.00" waitingCount="0" stopTime="0.00" timeLoss="11.52" rerouteNo="0" devices="tripinfo_WE_14" vType="cars" speedFactor="0.94" vaporized=""/>
    <tripinfo id="EW_11" depart="114.50" departLane="4_1_2" departPos="5.10" departSpeed="0.00" departDelay="1.50" arrival="166.00" arrivalLane="1_2_2" arrivalPos="186.40" arrivalSpeed="11.85" duration="51.50" routeLength="395.15" waitingTime="3.50" waitingCount="1" stopTime="0.00" timeLoss="20.95" rerouteNo="0" devices="tripinfo_EW_11" vType="cars" speedFactor="1.08" vaporized=""/>
    <tripinfo id="EW_12" depart="119.00" departLane="4_1_2" departPos="5.10" departSpeed="0.00" departDelay="0.00" arrival="168.00" arrivalLane="1_2_1" arrivalPos="186.40" arrivalSpeed="12.65" duration="49.00" routeLength="395.15" waitingTime="0.50" waitingCount="1" stopTime="0.00" timeLoss="18.40" rerouteNo="0" devices="tripinfo_EW_12" vType="cars" speedFactor="1.03" vaporized=""/>
    <tripinfo id="WE_15" depart="132.00" departLane="2_1_2" departPos="5.10" departSpeed="0.00" departDelay="0.00" arrival="168.00" arrivalLane="1_4_1" arrivalPos="186.40" arrivalSpeed="12.23" duration="36.00" routeLength="395.15" waitingTime="0.00" waitingCount="0" stopTime="0.00" timeLoss="5.44" rerouteNo="0" devices="tripinfo_WE_15" vType="cars" speedFactor="0.97" vaporized=""/>
    <tripinfo id="WS_38" depart="133.00" departLane="2_1_1" departPos="5.10" departSpeed="0.00" departDelay="0.00" arrival="170.00" arrivalLane="1_3_1" arrivalPos="186.40" arrivalSpeed="11.74" duration="37.00" routeLength="379.43" waitingTime="0.00" waitingCount="0" stopTime="0.00" timeLoss="6.71" rerouteNo="0" devices="tripinfo_WS_38" vType="cars" speedFactor="0.90" vaporized=""/>
    <tripinfo id="WE_16" depart="135.00" departLane="2_1_2" departPos="5.10" departSpeed="0.00" departDelay="0.00" arrival="171.00" arrivalLane="1_4_2" arrivalPos="186.40" arrivalSpeed="11.80" duration="36.00" routeLength="395.15" waitingTime="0.00" waitingCount="0" stopTime="0.00" timeLoss="5.28" rerouteNo="0" devices="tripinfo_WE_16" vType="cars" speedFactor="1.10" vaporized=""/>
    <tripinfo id="WE_17" depart="138.00" departLane="2_1_2" departPos="5.10" departSpeed="0.00" departDelay="1.00" arrival="173.50" arrivalLane="1_4_1" arrivalPos="186.40" arrivalSpeed="11.86" duration="35.50" routeLength="395.15" waitingTime="0.00" waitingCount="0" stopTime="0.00" timeLoss="5.10" rerouteNo="0" devices="tripinfo_WE_17" vType="cars" speedFactor="1.00" vaporized=""/>
    <personinfo id="person_NS_w.0" depart="13.50" type="DEFAULT_PEDTYPE" speedFactor="1.16" duration="162.00" waitingTime="0.00" timeLoss="24.46" traveltime="162.00">
        <walk depart="13.50" departPos="100.00" arrival="175.50" arrivalPos="93.20" duration="162.00" routeLength="221.25" timeLoss="24.46" maxSpeed="1.61"/>
    </personinfo>
    <personinfo id="person_SN_e.0" depart="38.50" type="DEFAULT_PEDTYPE" speedFactor="1.19" duration="142.00" waitingTime="0.00" timeLoss="7.96" traveltime="142.00">
        <walk depart="38.50" departPos="100.00" arrival="180.50" arrivalPos="93.20" duration="142.00" routeLength="221.24" timeLoss="7.96" maxSpeed="1.65"/>
    </personinfo>
    <tripinfo id="SE_27" depart="101.00" departLane="3_1_1" departPos="5.10" departSpeed="0.00" departDelay="0.00" arrival="186.00" arrivalLane="1_4_1" arrivalPos="186.40" arrivalSpeed="11.91" duration="85.00" routeLength="379.42" waitingTime="44.50" waitingCount="1" stopTime="0.00" timeLoss="54.98" rerouteNo="0" devices="tripinfo_SE_27" vType="cars" speedFactor="0.89" vaporized=""/>
    <tripinfo id="WN_34" depart="123.00" departLane="2_1_3" departPos="5.10" departSpeed="0.00" departDelay="0.00" arrival="188.50" arrivalLane="1_5_2" arrivalPos="186.40" arrivalSpeed="12.35" duration="65.50" routeLength="392.22" waitingTime="23.00" waitingCount="1" stopTime="0.00" timeLoss="34.63" rerouteNo="0" devices="tripinfo_WN_34" vType="cars" speedFactor="0.92" vaporized=""/>
    <tripinfo id="ES_40" depart="135.00" departLane="4_1_3" departPos="5.10" departSpeed="0.00" departDelay="0.00" arrival="188.50" arrivalLane="1_3_2" arrivalPos="186.40" arrivalSpeed="11.59" duration="53.50" routeLength="392.22" waitingTime="11.50" waitingCount="1" stopTime="0.00" timeLoss="22.69" rerouteNo="0" devices="tripinfo_ES_40" vType="cars" speedFactor="1.07" vaporized=""/>
    <tripinfo id="SN_28" depart="105.00" departLane="3_1_2" departPos="5.10" departSpeed="0.00" departDelay="0.00" arrival="202.00" arrivalLane="1_5_2" arrivalPos="186.40" arrivalSpeed="12.45" duration="97.00" routeLength="395.15" waitingTime="57.00" waitingCount="1" stopTime="0.00" timeLoss="66.55" rerouteNo="0" devices="tripinfo_SN_28" vType="cars" speedFactor="1.14" vaporized=""/>
    <tripinfo id="SN_29" depart="109.00" departLane="3_1_2" departPos="5.10" departSpeed="0.00" departDelay="0.00" arrival="202.50" arrivalLane="1_5_1" arrivalPos="186.40" arrivalSpeed="12.60" duration="93.50" routeLength="395.15" waitingTime="44.50" waitingCount="2" stopTime="0.00" timeLoss="62.92" rerouteNo="0" devices="tripinfo_SN_29" vType="cars" speedFactor="0.92" vaporized=""/>
    <tripinfo id="NS_30" depart="111.00" departLane="5_1_2" departPos="5.10" departSpeed="0.00" departDelay="0.00" arrival="202.50" arrivalLane="1_3_1" arrivalPos="186.40" arrivalSpeed="12.36" duration="91.50" routeLength="395.15" waitingTime="51.00" waitingCount="1" stopTime="0.00" timeLoss="60.83" rerouteNo="0" devices="tripinfo_NS_30" vType="cars" speedFactor="1.09" vaporized=""/>
    <tripinfo id="NS_32" depart="118.00" departLane="5_1_2" departPos="5.10" departSpeed="0.00" departDelay="0.00" arrival="203.00" arrivalLane="1_3_2" arrivalPos="186.40" arrivalSpeed="12.35" duration="85.00" routeLength="395.15" waitingTime="43.50" waitingCount="1" stopTime="0.00" timeLoss="54.29" rerouteNo="0" devices="tripinfo_NS_32" vType="cars" speedFactor="1.10" vaporized=""/>
    <tripinfo id="SN_35" depart="124.00" departLane="3_1_2" departPos="5.10" departSpeed="0.00" departDelay="0.00" arrival="204.00" arrivalLane="1_5_2" arrivalPos="186.40" arrivalSpeed="11.56" duration="80.00" routeLength="395.15" waitingTime="36.00" waitingCount="1" stopTime="0.00" timeLoss="49.46" rerouteNo="0" devices="tripinfo_SN_35" vType="cars" speedFactor="1.08" vaporized=""/>
    <tripinfo id="NS_41" depart="145.00" departLane="5_1_2" departPos="5.10" departSpeed="0.00" departDelay="0.00" arrival="204.50" arrivalLane="1_3_2" arrivalPos="186.40" arrivalSpeed="12.96" duration="59.50" routeLength="395.15" waitingTime="15.00" waitingCount="1" stopTime="0.00" timeLoss="28.95" rerouteNo="0" devices="tripinfo_NS_41" vType="cars" speedFactor="0.84" vaporized=""/>
    <tripinfo id="NS_36" depart="128.00" departLane="5_1_2" departPos="5.10" departSpeed="0.00" departDelay="0.00" arrival="205.00" arrivalLane="1_3_1" arrivalPos="186.40" arrivalSpeed="11.75" duration="77.00" routeLength="395.15" waitingTime="32.50" waitingCount="1" stopTime="0.00" timeLoss="46.20" rerouteNo="0" devices="tripinfo_NS_36" vType="cars" speedFactor="0.89" vaporized=""/>
    <tripinfo id="NW_42" depart="145.00" departLane="5_1_1" departPos="5.10" departSpeed="0.00" departDelay="0.00" arrival="206.50" arrivalLane="1_2_1" arrivalPos="186.40" arrivalSpeed="12.97" duration="61.50" routeLength="379.43" waitingTime="16.50" waitingCount="1" stopTime="0.00" timeLoss="31.69" rerouteNo="0" devices="tripinfo_NW_42" vType="cars" speedFactor="1.03" vaporized=""/>
    <tripinfo id="NS_43" depart="150.00" departLane="5_1_2" departPos="5.10" departSpeed="0.00" departDelay="0.00" arrival="207.00" arrivalLane="1_3_2" arrivalPos="186.40" arrivalSpeed="12.45" duration="57.00" routeLength="395.15" waitingTime="10.50" waitingCount="1" stopTime="0.00" timeLoss="26.46" rerouteNo="0" devices="tripinfo_NS_43" vType="cars" speedFactor="0.87" vaporized=""/>