<?xml version="1.0" encoding="UTF-8"?>

<!-- generated on 2025-07-10 16:57:59 by Eclipse SUMO GUI Version 1.22.0
<sumoConfiguration xmlns:xsi="http://www.w3.org/2001/XMLSchema-instance" xsi:noNamespaceSchemaLocation="http://sumo.dlr.de/xsd/sumoConfiguration.xsd">

    <input>
        <net-file value="/home/naderian/Desktop/Shakiba/MMSVCC/environment/network_model/single_intersection_bike_Concurrent_(permitted_right).net.xml"/>
        <route-files value="/home/naderian/Desktop/Shakiba/MMSVCC/environment/network_model/single_intersection.rou.xml"/>
        <additional-files value="/home/naderian/Desktop/Shakiba/MMSVCC/environment/network_model/single_intersection.add_actuated_(permitted_right).xml"/>
    </input>

    <output>
        <queue-output value="/home/naderian/Desktop/Shakiba/MMSVCC/environment/simulation_data/single_intersection/queues_actuated_asymmetric_pene_100.xml"/>
        <tripinfo-output value="/home/naderian/Desktop/Shakiba/MMSVCC/environment/simulation_data/single_intersection/tripinfo_actuated_asymmetric_pene_100.xml"/>
    </output>

    <time>
        <begin value="0"/>
        <step-length value="0.5"/>
    </time>

    <processing>
        <waiting-time-memory value="1000"/>
    </processing>

    <report>
        <verbose value="true"/>
        <no-step-log value="true"/>
    </report>

    <ssm_device>
        <device.ssm.file value="/home/naderian/Desktop/Shakiba/MMSVCC/environment/simulation_data/single_intersection/SSMinfo_actuated_pene_100.xml"/>
    </ssm_device>

    <traci_server>
        <remote-port value="34865"/>
    </traci_server>

    <gui_only>
        <start value="true"/>
    </gui_only>

</sumoConfiguration>
-->

<tripinfos xmlns:xsi="http://www.w3.org/2001/XMLSchema-instance" xsi:noNamespaceSchemaLocation="http://sumo.dlr.de/xsd/tripinfo_file.xsd">
    <tripinfo id="SN_0" depart="0.00" departLane="3_1_4" departPos="5.10" departSpeed="0.00" departDelay="0.00" arrival="36.00" arrivalLane="1_5_3" arrivalPos="184.90" arrivalSpeed="12.96" duration="36.00" routeLength="395.12" waitingTime="0.00" waitingCount="0" stopTime="0.00" timeLoss="5.22" rerouteNo="0" devices="tripinfo_SN_0 ssm_SN_0" vType="cars" speedFactor="1.04" vaporized=""/>
    <tripinfo id="NS_1" depart="1.00" departLane="5_1_4" departPos="5.10" departSpeed="0.00" departDelay="0.00" arrival="36.50" arrivalLane="1_3_3" arrivalPos="184.90" arrivalSpeed="11.90" duration="35.50" routeLength="395.12" waitingTime="0.00" waitingCount="0" stopTime="0.00" timeLoss="4.99" rerouteNo="0" devices="tripinfo_NS_1 ssm_NS_1" vType="cars" speedFactor="0.95" vaporized=""/>
    <tripinfo id="SN_2" depart="5.00" departLane="3_1_4" departPos="5.10" departSpeed="0.00" departDelay="0.00" arrival="40.50" arrivalLane="1_5_3" arrivalPos="184.90" arrivalSpeed="12.87" duration="35.50" routeLength="395.12" waitingTime="0.00" waitingCount="0" stopTime="0.00" timeLoss="5.11" rerouteNo="0" devices="tripinfo_SN_2 ssm_SN_2" vType="cars" speedFactor="0.85" vaporized=""/>
    <tripinfo id="NE_6" depart="20.00" departLane="5_1_5" departPos="5.10" departSpeed="0.00" departDelay="0.00" arrival="67.00" arrivalLane="1_4_4" arrivalPos="184.90" arrivalSpeed="12.32" duration="47.00" routeLength="391.63" waitingTime="4.00" waitingCount="1" stopTime="0.00" timeLoss="16.27" rerouteNo="0" devices="tripinfo_NE_6 ssm_NE_6" vType="cars" speedFactor="1.01" vaporized=""/>
    <tripinfo id="WE_0" depart="1.00" departLane="2_1_4" departPos="5.10" departSpeed="0.00" departDelay="0.00" arrival="80.50" arrivalLane="1_4_3" arrivalPos="184.90" arrivalSpeed="12.32" duration="79.50" routeLength="395.12" waitingTime="38.50" waitingCount="1" stopTime="0.00" timeLoss="48.94" rerouteNo="0" devices="tripinfo_WE_0 ssm_WE_0" vType="cars" speedFactor="0.86" vaporized=""/>
    <tripinfo id="WE_1" depart="10.00" departLane="2_1_4" departPos="5.10" departSpeed="0.00" departDelay="0.00" arrival="80.50" arrivalLane="1_4_4" arrivalPos="184.90" arrivalSpeed="12.10" duration="70.50" routeLength="395.12" waitingTime="29.50" waitingCount="1" stopTime="0.00" timeLoss="39.71" rerouteNo="0" devices="tripinfo_WE_1 ssm_WE_1" vType="cars" speedFactor="1.10" vaporized=""/>
    <tripinfo id="EW_0" depart="32.00" departLane="4_1_4" departPos="5.10" departSpeed="0.00" departDelay="0.00" arrival="81.00" arrivalLane="1_2_3" arrivalPos="184.90" arrivalSpeed="12.51" duration="49.00" routeLength="395.12" waitingTime="7.00" waitingCount="1" stopTime="0.00" timeLoss="18.28" rerouteNo="0" devices="tripinfo_EW_0 ssm_EW_0" vType="cars" speedFactor="0.84" vaporized=""/>
    <tripinfo id="EW_1" depart="37.00" departLane="4_1_4" departPos="5.10" departSpeed="0.00" departDelay="0.00" arrival="82.00" arrivalLane="1_2_4" arrivalPos="184.90" arrivalSpeed="12.56" duration="45.00" routeLength="395.12" waitingTime="2.00" waitingCount="1" stopTime="0.00" timeLoss="14.37" rerouteNo="0" devices="tripinfo_EW_1 ssm_EW_1" vType="cars" speedFactor="1.00" vaporized=""/>
    <tripinfo id="WE_2" depart="12.50" departLane="2_1_4" departPos="5.10" departSpeed="0.00" departDelay="0.50" arrival="83.00" arrivalLane="1_4_4" arrivalPos="184.90" arrivalSpeed="12.45" duration="70.50" routeLength="395.12" waitingTime="24.50" waitingCount="1" stopTime="0.00" timeLoss="40.09" rerouteNo="0" devices="tripinfo_WE_2 ssm_WE_2" vType="cars" speedFactor="1.17" vaporized=""/>
    <tripinfo id="EW_2" depart="42.00" departLane="4_1_4" departPos="5.10" departSpeed="0.00" departDelay="0.00" arrival="84.00" arrivalLane="1_2_3" arrivalPos="184.90" arrivalSpeed="12.30" duration="42.00" routeLength="395.12" waitingTime="0.00" waitingCount="0" stopTime="0.00" timeLoss="11.39" rerouteNo="0" devices="tripinfo_EW_2 ssm_EW_2" vType="cars" speedFactor="1.13" vaporized=""/>
    <tripinfo id="WE_3" depart="19.00" departLane="2_1_4" departPos="5.10" departSpeed="0.00" departDelay="0.00" arrival="85.00" arrivalLane="1_4_4" arrivalPos="184.90" arrivalSpeed="12.64" duration="66.00" routeLength="395.12" waitingTime="21.00" waitingCount="1" stopTime="0.00" timeLoss="35.50" rerouteNo="0" devices="tripinfo_WE_3 ssm_WE_3" vType="cars" speedFactor="0.90" vaporized=""/>
    <tripinfo id="WS_3" depart="7.00" departLane="2_1_3" departPos="5.10" departSpeed="0.00" departDelay="0.00" arrival="87.00" arrivalLane="1_3_3" arrivalPos="184.90" arrivalSpeed="12.09" duration="80.00" routeLength="378.83" waitingTime="31.50" waitingCount="2" stopTime="0.00" timeLoss="49.98" rerouteNo="0" devices="tripinfo_WS_3 ssm_WS_3" vType="cars" speedFactor="0.93" vaporized=""/>
    <tripinfo id="WE_4" depart="26.00" departLane="2_1_4" departPos="5.10" departSpeed="0.00" departDelay="0.00" arrival="87.00" arrivalLane="1_4_4" arrivalPos="184.90" arrivalSpeed="11.70" duration="61.00" routeLength="395.12" waitingTime="13.50" waitingCount="1" stopTime="0.00" timeLoss="30.33" rerouteNo="0" devices="tripinfo_WE_4 ssm_WE_4" vType="cars" speedFactor="1.00" vaporized=""/>
    <tripinfo id="WS_5" depart="16.00" departLane="2_1_3" departPos="5.10" departSpeed="0.00" departDelay="0.00" arrival="88.50" arrivalLane="1_3_4" arrivalPos="184.90" arrivalSpeed="12.72" duration="72.50" routeLength="378.83" waitingTime="22.50" waitingCount="1" stopTime="0.00" timeLoss="42.49" rerouteNo="0" devices="tripinfo_WS_5 ssm_WS_5" vType="cars" speedFactor="1.02" vaporized=""/>
    <tripinfo id="WE_6" depart="32.00" departLane="2_1_4" departPos="5.10" departSpeed="0.00" departDelay="2.00" arrival="89.00" arrivalLane="1_4_4" arrivalPos="184.90" arrivalSpeed="12.02" duration="57.00" routeLength="395.12" waitingTime="8.50" waitingCount="1" stopTime="0.00" timeLoss="26.23" rerouteNo="0" devices="tripinfo_WE_6 ssm_WE_6" vType="cars" speedFactor="0.89" vaporized=""/>
    <tripinfo id="WE_5" depart="29.00" departLane="2_1_4" departPos="5.10" departSpeed="0.00" departDelay="0.00" arrival="91.50" arrivalLane="1_4_3" arrivalPos="184.90" arrivalSpeed="11.54" duration="62.50" routeLength="395.12" waitingTime="8.00" waitingCount="1" stopTime="0.00" timeLoss="31.81" rerouteNo="0" devices="tripinfo_WE_5 ssm_WE_5" vType="cars" speedFactor="0.96" vaporized=""/>
    <tripinfo id="WS-bike.0" depart="17.00" departLane="2_1_1" departPos="1.70" departSpeed="0.00" departDelay="0.05" arrival="95.00" arrivalLane="1_3_1" arrivalPos="184.90" arrivalSpeed="6.71" duration="78.00" routeLength="376.68" waitingTime="9.50" waitingCount="1" stopTime="0.00" timeLoss="22.40" rerouteNo="0" devices="tripinfo_WS-bike.0 ssm_WS-bike.0" vType="bike" speedFactor="1.22" vaporized=""/>
    <tripinfo id="EW-bike.1" depart="27.50" departLane="4_1_3" departPos="1.70" departSpeed="0.00" departDelay="0.09" arrival="98.50" arrivalLane="1_2_1" arrivalPos="184.90" arrivalSpeed="6.25" duration="71.00" routeLength="398.52" waitingTime="0.00" waitingCount="0" stopTime="0.00" timeLoss="7.43" rerouteNo="0" devices="tripinfo_EW-bike.1 ssm_EW-bike.1" vType="bike" speedFactor="1.13" vaporized=""/>
    <tripinfo id="EW_3" depart="62.00" departLane="4_1_4" departPos="5.10" departSpeed="0.00" departDelay="0.00" arrival="99.00" arrivalLane="1_2_3" arrivalPos="184.90" arrivalSpeed="12.47" duration="37.00" routeLength="395.12" waitingTime="0.00" waitingCount="0" stopTime="0.00" timeLoss="6.57" rerouteNo="0" devices="tripinfo_EW_3 ssm_EW_3" vType="cars" speedFactor="0.98" vaporized=""/>
    <tripinfo id="EW-bike.0" depart="13.50" departLane="4_1_1" departPos="1.70" departSpeed="0.00" departDelay="0.31" arrival="100.50" arrivalLane="1_2_1" arrivalPos="184.90" arrivalSpeed="5.57" duration="87.00" routeLength="398.71" waitingTime="10.00" waitingCount="1" stopTime="0.00" timeLoss="18.68" rerouteNo="0" devices="tripinfo_EW-bike.0 ssm_EW-bike.0" vType="bike" speedFactor="1.05" vaporized=""/>
    <tripinfo id="WE_7" depart="67.00" departLane="2_1_4" departPos="5.10" departSpeed="0.00" departDelay="0.00" arrival="103.50" arrivalLane="1_4_3" arrivalPos="184.90" arrivalSpeed="12.53" duration="36.50" routeLength="395.12" waitingTime="0.00" waitingCount="0" stopTime="0.00" timeLoss="6.03" rerouteNo="0" devices="tripinfo_WE_7 ssm_WE_7" vType="cars" speedFactor="0.93" vaporized=""/>
    <tripinfo id="WE-bike.1" depart="11.00" departLane="2_1_1" departPos="1.70" departSpeed="0.00" departDelay="0.02" arrival="103.50" arrivalLane="1_4_1" arrivalPos="184.90" arrivalSpeed="5.53" duration="92.50" routeLength="398.63" waitingTime="11.00" waitingCount="1" stopTime="0.00" timeLoss="22.59" rerouteNo="0" devices="tripinfo_WE-bike.1 ssm_WE-bike.1" vType="bike" speedFactor="1.03" vaporized=""/>
    <tripinfo id="WE-bike.0" depart="1.50" departLane="2_1_1" departPos="1.70" departSpeed="0.00" departDelay="0.06" arrival="107.00" arrivalLane="1_4_1" arrivalPos="184.90" arrivalSpeed="4.75" duration="105.50" routeLength="398.63" waitingTime="17.00" waitingCount="1" stopTime="0.00" timeLoss="25.30" rerouteNo="0" devices="tripinfo_WE-bike.0 ssm_WE-bike.0" vType="bike" speedFactor="0.90" vaporized=""/>
    <tripinfo id="ES_4" depart="14.00" departLane="4_1_5" departPos="5.10" departSpeed="0.00" departDelay="0.00" arrival="113.00" arrivalLane="1_3_4" arrivalPos="184.90" arrivalSpeed="11.78" duration="99.00" routeLength="391.63" waitingTime="57.50" waitingCount="1" stopTime="0.00" timeLoss="68.69" rerouteNo="0" devices="tripinfo_ES_4 ssm_ES_4" vType="cars" speedFactor="1.12" vaporized=""/>
    <tripinfo id="WE-bike.2" depart="21.00" departLane="2_1_3" departPos="1.70" departSpeed="0.00" departDelay="0.09" arrival="114.00" arrivalLane="1_4_1" arrivalPos="184.90" arrivalSpeed="5.33" duration="93.00" routeLength="398.52" waitingTime="6.50" waitingCount="1" stopTime="0.00" timeLoss="21.95" rerouteNo="0" devices="tripinfo_WE-bike.2 ssm_WE-bike.2" vType="bike" speedFactor="1.01" vaporized=""/>
    <tripinfo id="SN_9" depart="27.50" departLane="3_1_4" departPos="5.10" departSpeed="0.00" departDelay="1.50" arrival="127.00" arrivalLane="1_5_4" arrivalPos="184.90" arrivalSpeed="12.33" duration="99.50" routeLength="395.12" waitingTime="58.50" waitingCount="1" stopTime="0.00" timeLoss="68.91" rerouteNo="0" devices="tripinfo_SN_9 ssm_SN_9" vType="cars" speedFactor="1.17" vaporized=""/>
    <tripinfo id="NS_12" depart="34.00" departLane="5_1_4" departPos="5.10" departSpeed="0.00" departDelay="0.00" arrival="127.00" arrivalLane="1_3_4" arrivalPos="184.90" arrivalSpeed="12.19" duration="93.00" routeLength="395.12" waitingTime="53.50" waitingCount="1" stopTime="0.00" timeLoss="62.55" rerouteNo="0" devices="tripinfo_NS_12 ssm_NS_12" vType="cars" speedFactor="0.90" vaporized=""/>
    <tripinfo id="SN_8" depart="25.00" departLane="3_1_4" departPos="5.10" departSpeed="0.00" departDelay="0.00" arrival="127.50" arrivalLane="1_5_3" arrivalPos="184.90" arrivalSpeed="12.38" duration="102.50" routeLength="395.12" waitingTime="62.00" waitingCount="1" stopTime="0.00" timeLoss="72.07" rerouteNo="0" devices="tripinfo_SN_8 ssm_SN_8" vType="cars" speedFactor="0.98" vaporized=""/>
    <tripinfo id="NS_7" depart="22.00" departLane="5_1_4" departPos="5.10" departSpeed="0.00" departDelay="0.00" arrival="128.00" arrivalLane="1_3_3" arrivalPos="184.90" arrivalSpeed="12.64" duration="106.00" routeLength="395.12" waitingTime="63.00" waitingCount="1" stopTime="0.00" timeLoss="75.48" rerouteNo="0" devices="tripinfo_NS_7 ssm_NS_7" vType="cars" speedFactor="1.04" vaporized=""/>
    <tripinfo id="SN_11" depart="33.00" departLane="3_1_4" departPos="5.10" departSpeed="0.00" departDelay="3.00" arrival="129.00" arrivalLane="1_5_4" arrivalPos="184.90" arrivalSpeed="12.27" duration="96.00" routeLength="395.12" waitingTime="50.50" waitingCount="1" stopTime="0.00" timeLoss="65.53" rerouteNo="0" devices="tripinfo_SN_11 ssm_SN_11" vType="cars" speedFactor="1.02" vaporized=""/>
    <tripinfo id="SN_10" depart="30.50" departLane="3_1_4" departPos="5.10" departSpeed="0.00" departDelay="1.50" arrival="130.00" arrivalLane="1_5_3" arrivalPos="184.90" arrivalSpeed="12.48" duration="99.50" routeLength="395.12" waitingTime="55.00" waitingCount="1" stopTime="0.00" timeLoss="68.95" rerouteNo="0" devices="tripinfo_SN_10 ssm_SN_10" vType="cars" speedFactor="0.97" vaporized=""/>
    <tripinfo id="NS_17" depart="50.00" departLane="5_1_4" departPos="5.10" departSpeed="0.00" departDelay="0.00" arrival="130.50" arrivalLane="1_3_3" arrivalPos="184.90" arrivalSpeed="12.85" duration="80.50" routeLength="395.12" waitingTime="35.00" waitingCount="1" stopTime="0.00" timeLoss="49.81" rerouteNo="0" devices="tripinfo_NS_17 ssm_NS_17" vType="cars" speedFactor="0.95" vaporized=""/>
    <tripinfo id="SN_14" depart="38.00" departLane="3_1_4" departPos="5.10" departSpeed="0.00" departDelay="0.00" arrival="131.50" arrivalLane="1_5_4" arrivalPos="184.90" arrivalSpeed="12.72" duration="93.50" routeLength="395.12" waitingTime="47.50" waitingCount="1" stopTime="0.00" timeLoss="62.95" rerouteNo="0" devices="tripinfo_SN_14 ssm_SN_14" vType="cars" speedFactor="0.96" vaporized=""/>
    <tripinfo id="SN_16" depart="41.00" departLane="3_1_4" departPos="5.10" departSpeed="0.00" departDelay="1.00" arrival="132.50" arrivalLane="1_5_3" arrivalPos="184.90" arrivalSpeed="12.96" duration="91.50" routeLength="395.12" waitingTime="41.00" waitingCount="1" stopTime="0.00" timeLoss="60.76" rerouteNo="0" devices="tripinfo_SN_16 ssm_SN_16" vType="cars" speedFactor="0.93" vaporized=""/>
    <tripinfo id="NS_27" depart="89.00" departLane="5_1_4" departPos="5.10" departSpeed="0.00" departDelay="0.00" arrival="132.50" arrivalLane="1_3_4" arrivalPos="184.90" arrivalSpeed="11.92" duration="43.50" routeLength="395.12" waitingTime="0.00" waitingCount="0" stopTime="0.00" timeLoss="12.68" rerouteNo="0" devices="tripinfo_NS_27 ssm_NS_27" vType="cars" speedFactor="0.90" vaporized=""/>
    <tripinfo id="SN_18" depart="50.00" departLane="3_1_4" departPos="5.10" departSpeed="0.00" departDelay="0.00" arrival="133.50" arrivalLane="1_5_4" arrivalPos="184.90" arrivalSpeed="12.03" duration="83.50" routeLength="395.12" waitingTime="37.50" waitingCount="1" stopTime="0.00" timeLoss="52.93" rerouteNo="0" devices="tripinfo_SN_18 ssm_SN_18" vType="cars" speedFactor="0.99" vaporized=""/>
    <tripinfo id="NS_29" depart="92.00" departLane="5_1_4" departPos="5.10" departSpeed="0.00" departDelay="0.00" arrival="134.00" arrivalLane="1_3_3" arrivalPos="184.90" arrivalSpeed="11.86" duration="42.00" routeLength="395.12" waitingTime="0.00" waitingCount="0" stopTime="0.00" timeLoss="11.28" rerouteNo="0" devices="tripinfo_NS_29 ssm_NS_29" vType="cars" speedFactor="1.02" vaporized=""/>
    <tripinfo id="SN_20" depart="60.00" departLane="3_1_4" departPos="5.10" departSpeed="0.00" departDelay="0.00" arrival="135.50" arrivalLane="1_5_3" arrivalPos="184.90" arrivalSpeed="11.72" duration="75.50" routeLength="395.12" waitingTime="29.00" waitingCount="1" stopTime="0.00" timeLoss="44.78" rerouteNo="0" devices="tripinfo_SN_20 ssm_SN_20" vType="cars" speedFactor="0.83" vaporized=""/>
    <tripinfo id="NW_19" depart="53.00" departLane="5_1_3" departPos="5.10" departSpeed="0.00" departDelay="0.00" arrival="137.50" arrivalLane="1_2_3" arrivalPos="184.90" arrivalSpeed="11.88" duration="84.50" routeLength="378.83" waitingTime="36.50" waitingCount="3" stopTime="0.00" timeLoss="54.30" rerouteNo="0" devices="tripinfo_NW_19 ssm_NW_19" vType="cars" speedFactor="1.00" vaporized=""/>
    <tripinfo id="SN_22" depart="75.00" departLane="3_1_4" departPos="5.10" departSpeed="0.00" departDelay="0.00" arrival="137.50" arrivalLane="1_5_3" arrivalPos="184.90" arrivalSpeed="11.75" duration="62.50" routeLength="395.12" waitingTime="14.00" waitingCount="1" stopTime="0.00" timeLoss="31.86" rerouteNo="0" devices="tripinfo_SN_22 ssm_SN_22" vType="cars" speedFactor="0.86" vaporized=""/>
    <tripinfo id="NW_21" depart="69.00" departLane="5_1_3" departPos="5.10" departSpeed="0.00" departDelay="0.00" arrival="139.00" arrivalLane="1_2_4" arrivalPos="184.90" arrivalSpeed="11.76" duration="70.00" routeLength="378.83" waitingTime="17.50" waitingCount="2" stopTime="0.00" timeLoss="40.31" rerouteNo="0" devices="tripinfo_NW_21 ssm_NW_21" vType="cars" speedFactor="1.07" vaporized=""/>
    <tripinfo id="SN_25" depart="84.00" departLane="3_1_4" departPos="5.10" departSpeed="0.00" departDelay="0.00" arrival="139.00" arrivalLane="1_5_4" arrivalPos="184.90" arrivalSpeed="12.21" duration="55.00" routeLength="395.12" waitingTime="6.50" waitingCount="1" stopTime="0.00" timeLoss="24.57" rerouteNo="0" devices="tripinfo_SN_25 ssm_SN_25" vType="cars" speedFactor="1.06" vaporized=""/>
    <tripinfo id="SN_31" depart="99.00" departLane="3_1_4" departPos="5.10" departSpeed="0.00" departDelay="0.00" arrival="142.00" arrivalLane="1_5_3" arrivalPos="184.90" arrivalSpeed="11.67" duration="43.00" routeLength="395.12" waitingTime="0.00" waitingCount="0" stopTime="0.00" timeLoss="12.35" rerouteNo="0" devices="tripinfo_SN_31 ssm_SN_31" vType="cars" speedFactor="0.98" vaporized=""/>
    <tripinfo id="SN_26" depart="87.00" departLane="3_1_4" departPos="5.10" departSpeed="0.00" departDelay="2.00" arrival="145.00" arrivalLane="1_5_4" arrivalPos="184.90" arrivalSpeed="12.16" duration="58.00" routeLength="395.12" waitingTime="2.50" waitingCount="1" stopTime="0.00" timeLoss="27.32" rerouteNo="0" devices="tripinfo_SN_26 ssm_SN_26" vType="cars" speedFactor="0.93" vaporized=""/>
    <tripinfo id="SN-bike.0" depart="22.50" departLane="3_1_1" departPos="1.70" departSpeed="0.00" departDelay="0.25" arrival="148.50" arrivalLane="1_5_1" arrivalPos="184.90" arrivalSpeed="5.67" duration="126.00" routeLength="398.62" waitingTime="48.00" waitingCount="1" stopTime="0.00" timeLoss="56.44" rerouteNo="0" devices="tripinfo_SN-bike.0 ssm_SN-bike.0" vType="bike" speedFactor="1.03" vaporized=""/>
    <tripinfo id="SE_13" depart="36.50" departLane="3_1_3" departPos="5.10" departSpeed="0.00" departDelay="0.50" arrival="149.50" arrivalLane="1_4_3" arrivalPos="184.90" arrivalSpeed="12.61" duration="113.00" routeLength="378.82" waitingTime="49.00" waitingCount="2" stopTime="0.00" timeLoss="83.10" rerouteNo="0" devices="tripinfo_SE_13 ssm_SE_13" vType="cars" speedFactor="1.13" vaporized=""/>
    <tripinfo id="SN-bike.2" depart="61.00" departLane="3_1_1" departPos="1.70" departSpeed="0.00" departDelay="0.25" arrival="154.00" arrivalLane="1_5_1" arrivalPos="184.90" arrivalSpeed="4.88" duration="93.00" routeLength="398.62" waitingTime="5.00" waitingCount="1" stopTime="0.00" timeLoss="15.66" rerouteNo="0" devices="tripinfo_SN-bike.2 ssm_SN-bike.2" vType="bike" speedFactor="0.93" vaporized=""/>
    <tripinfo id="SN-bike.1" depart="32.50" departLane="3_1_3" departPos="1.70" departSpeed="0.00" departDelay="0.28" arrival="155.00" arrivalLane="1_5_2" arrivalPos="184.90" arrivalSpeed="5.66" duration="122.50" routeLength="398.52" waitingTime="40.00" waitingCount="1" stopTime="0.00" timeLoss="52.11" rerouteNo="0" devices="tripinfo_SN-bike.1 ssm_SN-bike.1" vType="bike" speedFactor="1.02" vaporized=""/>
    <tripinfo id="SE_15" depart="39.50" departLane="3_1_3" departPos="5.10" departSpeed="0.00" departDelay="0.50" arrival="156.50" arrivalLane="1_4_3" arrivalPos="184.90" arrivalSpeed="12.18" duration="117.00" routeLength="378.82" waitingTime="47.50" waitingCount="3" stopTime="0.00" timeLoss="86.89" rerouteNo="0" devices="tripinfo_SE_15 ssm_SE_15" vType="cars" speedFactor="0.99" vaporized=""/>
    <tripinfo id="NE_30" depart="92.00" departLane="5_1_5" departPos="5.10" departSpeed="0.00" departDelay="0.00" arrival="159.00" arrivalLane="1_4_4" arrivalPos="184.90" arrivalSpeed="11.98" duration="67.00" routeLength="391.63" waitingTime="24.50" waitingCount="1" stopTime="0.00" timeLoss="36.33" rerouteNo="0" devices="tripinfo_NE_30 ssm_NE_30" vType="cars" speedFactor="0.97" vaporized=""/>
    <tripinfo id="SW_35" depart="123.00" departLane="3_1_5" departPos="5.10" departSpeed="0.00" departDelay="0.00" arrival="160.50" arrivalLane="1_2_4" arrivalPos="184.90" arrivalSpeed="11.64" duration="37.50" routeLength="391.64" waitingTime="0.00" waitingCount="0" stopTime="0.00" timeLoss="6.71" rerouteNo="0" devices="tripinfo_SW_35 ssm_SW_35" vType="cars" speedFactor="0.95" vaporized=""/>
    <tripinfo id="WE_8" depart="78.00" departLane="2_1_4" departPos="5.10" departSpeed="0.00" departDelay="0.00" arrival="173.00" arrivalLane="1_4_3" arrivalPos="184.90" arrivalSpeed="11.76" duration="95.00" routeLength="395.12" waitingTime="53.50" waitingCount="1" stopTime="0.00" timeLoss="64.60" rerouteNo="0" devices="tripinfo_WE_8 ssm_WE_8" vType="cars" speedFactor="0.86" vaporized=""/>
    <tripinfo id="SN-bike.3" depart="95.00" departLane="3_1_1" departPos="1.70" departSpeed="0.00" departDelay="0.01" arrival="173.00" arrivalLane="1_5_1" arrivalPos="184.90" arrivalSpeed="5.42" duration="78.00" routeLength="398.62" waitingTime="0.00" waitingCount="0" stopTime="0.00" timeLoss="6.93" rerouteNo="0" devices="tripinfo_SN-bike.3 ssm_SN-bike.3" vType="bike" speedFactor="1.01" vaporized=""/>
    <personinfo id="person_WE_s.0" depart="2.00" type="DEFAULT_PEDTYPE" speedFactor="0.98" duration="173.50" waitingTime="0.00" timeLoss="10.64" traveltime="173.50">
        <walk depart="2.00" departPos="100.00" arrival="175.50" arrivalPos="92.45" duration="173.50" routeLength="220.59" timeLoss="10.64" maxSpeed="1.35"/>
    </personinfo>
    <tripinfo id="WE_9" depart="109.00" departLane="2_1_4" departPos="5.10" departSpeed="0.00" departDelay="0.00" arrival="178.00" arrivalLane="1_4_4" arrivalPos="184.90" arrivalSpeed="12.35" duration="69.00" routeLength="395.12" waitingTime="20.50" waitingCount="1" stopTime="0.00" timeLoss="38.60" rerouteNo="0" devices="tripinfo_WE_9 ssm_WE_9" vType="cars" speedFactor="0.95" vaporized=""/>
    <tripinfo id="EW_4" depart="124.00" departLane="4_1_4" departPos="5.10" departSpeed="0.00" departDelay="0.00" arrival="179.00" arrivalLane="1_2_4" arrivalPos="184.90" arrivalSpeed="12.83" duration="55.00" routeLength="395.12" waitingTime="4.50" waitingCount="1" stopTime="0.00" timeLoss="24.15" rerouteNo="0" devices="tripinfo_EW_4 ssm_EW_4" vType="cars" speedFactor="0.93" vaporized=""/>
    <tripinfo id="WE_10" depart="117.00" departLane="2_1_4" departPos="5.10" departSpeed="0.00" departDelay="0.00" arrival="180.50" arrivalLane="1_4_4" arrivalPos="184.90" arrivalSpeed="11.51" duration="63.50" routeLength="395.12" waitingTime="14.50" waitingCount="1" stopTime="0.00" timeLoss="32.69" rerouteNo="0" devices="tripinfo_WE_10 ssm_WE_10" vType="cars" speedFactor="0.92" vaporized=""/>
    <tripinfo id="EW_6" depart="145.00" departLane="4_1_4" departPos="5.10" departSpeed="0.00" departDelay="0.00" arrival="181.00" arrivalLane="1_2_3" arrivalPos="184.90" arrivalSpeed="12.63" duration="36.00" routeLength="395.12" waitingTime="0.00" waitingCount="0" stopTime="0.00" timeLoss="5.22" rerouteNo="0" devices="tripinfo_EW_6 ssm_EW_6" vType="cars" speedFactor="0.99" vaporized=""/>
    <tripinfo id="WE_11" depart="120.00" departLane="2_1_4" departPos="5.10" departSpeed="0.00" departDelay="2.00" arrival="182.50" arrivalLane="1_4_3" arrivalPos="184.90" arrivalSpeed="12.81" duration="62.50" routeLength="395.12" waitingTime="13.50" waitingCount="1" stopTime="0.00" timeLoss="31.84" rerouteNo="0" devices="tripinfo_WE_11 ssm_WE_11" vType="cars" speedFactor="1.07" vaporized=""/>
    <personinfo id="person_ES_diag.0" depart="7.00" type="DEFAULT_PEDTYPE" speedFactor="1.22" duration="176.50" waitingTime="0.00" timeLoss="37.11" traveltime="176.50">
        <walk depart="7.00" departPos="100.00" arrival="183.50" arrivalPos="92.45" duration="176.50" routeLength="237.10" timeLoss="37.11" maxSpeed="1.70"/>
    </personinfo>
    <tripinfo id="EW_5" depart="129.00" departLane="4_1_4" departPos="5.10" departSpeed="0.00" departDelay="0.00" arrival="183.50" arrivalLane="1_2_4" arrivalPos="184.90" arrivalSpeed="12.01" duration="54.50" routeLength="395.12" waitingTime="2.00" waitingCount="1" stopTime="0.00" timeLoss="24.00" rerouteNo="0" devices="tripinfo_EW_5 ssm_EW_5" vType="cars" speedFactor="1.06" vaporized=""/>
    <tripinfo id="EW_7" depart="147.50" departLane="4_1_4" departPos="5.10" departSpeed="0.00" departDelay="1.50" arrival="184.00" arrivalLane="1_2_3" arrivalPos="184.90" arrivalSpeed="12.14" duration="36.50" routeLength="395.12" waitingTime="0.00" waitingCount="0" stopTime="0.00" timeLoss="5.78" rerouteNo="0" devices="tripinfo_EW_7 ssm_EW_7" vType="cars" speedFactor="1.05" vaporized=""/>
    <tripinfo id="WE_13" depart="125.00" departLane="2_1_4" departPos="5.10" departSpeed="0.00" departDelay="5.00" arrival="184.50" arrivalLane="1_4_4" arrivalPos="184.90" arrivalSpeed="12.07" duration="59.50" routeLength="395.12" waitingTime="9.50" waitingCount="1" stopTime="0.00" timeLoss="28.67" rerouteNo="0" devices="tripinfo_WE_13 ssm_WE_13" vType="cars" speedFactor="1.00" vaporized=""/>
    <personinfo id="person_SW_diag.0" depart="14.00" type="DEFAULT_PEDTYPE" speedFactor="1.17" duration="171.50" waitingTime="0.00" timeLoss="30.55" traveltime="171.50">
        <walk depart="14.00" departPos="100.00" arrival="185.50" arrivalPos="92.45" duration="171.50" routeLength="228.34" timeLoss="30.55" maxSpeed="1.62"/>
    </personinfo>
    <tripinfo id="WE_14" depart="128.00" departLane="2_1_4" departPos="5.10" departSpeed="0.00" departDelay="5.00" arrival="186.00" arrivalLane="1_4_3" arrivalPos="184.90" arrivalSpeed="12.52" duration="58.00" routeLength="395.12" waitingTime="7.50" waitingCount="2" stopTime="0.00" timeLoss="27.50" rerouteNo="0" devices="tripinfo_WE_14 ssm_WE_14" vType="cars" speedFactor="1.09" vaporized=""/>
    <tripinfo id="WE_16" depart="134.00" departLane="2_1_4" departPos="5.10" departSpeed="0.00" departDelay="1.00" arrival="188.50" arrivalLane="1_4_3" arrivalPos="184.90" arrivalSpeed="11.93" duration="54.50" routeLength="395.12" waitingTime="4.50" waitingCount="1" stopTime="0.00" timeLoss="23.96" rerouteNo="0" devices="tripinfo_WE_16 ssm_WE_16" vType="cars" speedFactor="1.06" vaporized=""/>
    <tripinfo id="NW-bike.0" depart="107.00" departLane="5_1_1" departPos="1.70" departSpeed="0.00" departDelay="0.44" arrival="189.50" arrivalLane="1_2_1" arrivalPos="184.90" arrivalSpeed="4.80" duration="82.50" routeLength="376.54" waitingTime="0.00" waitingCount="0" stopTime="0.00" timeLoss="4.74" rerouteNo="0" devices="tripinfo_NW-bike.0 ssm_NW-bike.0" vType="bike" speedFactor="0.87" vaporized=""/>
    <personinfo id="person_NS_w.3" depart="26.50" type="DEFAULT_PEDTYPE" speedFactor="1.15" duration="164.00" waitingTime="0.00" timeLoss="25.28" traveltime="164.00">
        <walk depart="26.50" departPos="100.00" arrival="190.50" arrivalPos="92.45" duration="164.00" routeLength="221.14" timeLoss="25.28" maxSpeed="1.59"/>
    </personinfo>
    <personinfo id="person_SN_e.0" depart="18.50" type="DEFAULT_PEDTYPE" speedFactor="1.15" duration="172.00" waitingTime="0.00" timeLoss="33.54" traveltime="172.00">
        <walk depart="18.50" departPos="100.00" arrival="190.50" arrivalPos="92.45" duration="172.00" routeLength="220.89" timeLoss="33.54" maxSpeed="1.60"/>
    </personinfo>
    <tripinfo id="WE_17" depart="137.00" departLane="2_1_4" departPos="5.10" departSpeed="0.00" departDelay="3.00" arrival="190.50" arrivalLane="1_4_4" arrivalPos="184.90" arrivalSpeed="12.66" duration="53.50" routeLength="395.12" waitingTime="3.00" waitingCount="1" stopTime="0.00" timeLoss="22.71" rerouteNo="0" devices="tripinfo_WE_17 ssm_WE_17" vType="cars" speedFactor="1.05" vaporized=""/>
    <tripinfo id="WS-bike.1" depart="83.50" departLane="2_1_1" departPos="1.70" departSpeed="0.00" departDelay="0.06" arrival="191.50" arrivalLane="1_3_1" arrivalPos="184.90" arrivalSpeed="5.57" duration="108.00" routeLength="376.68" waitingTime="32.00" waitingCount="1" stopTime="0.00" timeLoss="42.65" rerouteNo="0" devices="tripinfo_WS-bike.1 ssm_WS-bike.1" vType="bike" speedFactor="1.04" vaporized=""/>