<?xml version="1.0" encoding="UTF-8"?>

<!-- generated on 2025-06-30 15:03:48 by Eclipse SUMO GUI Version 1.22.0
<sumoConfiguration xmlns:xsi="http://www.w3.org/2001/XMLSchema-instance" xsi:noNamespaceSchemaLocation="http://sumo.dlr.de/xsd/sumoConfiguration.xsd">

    <input>
        <net-file value="/home/naderian/Desktop/Shakiba/MMSVCC/environment/network_model/single_intersection_Concurrent_(delayed_turn).net.xml"/>
        <route-files value="/home/naderian/Desktop/Shakiba/MMSVCC/environment/network_model/single_intersection.rou.xml"/>
        <additional-files value="/home/naderian/Desktop/Shakiba/MMSVCC/environment/network_model/single_intersection.add_actuated_(delayed_turn).xml"/>
    </input>

    <output>
        <queue-output value="/home/naderian/Desktop/Shakiba/MMSVCC/environment/simulation_data/single_intersection/queues_actuated_asymmetric_pene_100.xml"/>
        <tripinfo-output value="/home/naderian/Desktop/Shakiba/MMSVCC/environment/simulation_data/single_intersection/tripinfo_actuated_asymmetric_pene_100.xml"/>
    </output>

    <time>
        <begin value="0"/>
        <step-length value="0.5"/>
    </time>

    <processing>
        <waiting-time-memory value="1000"/>
    </processing>

    <report>
        <verbose value="true"/>
        <no-step-log value="true"/>
    </report>

    <ssm_device>
        <device.ssm.file value="/home/naderian/Desktop/Shakiba/MMSVCC/environment/simulation_data/single_intersection/SSMinfo_actuated_pene_100.xml"/>
    </ssm_device>

    <traci_server>
        <remote-port value="42347"/>
    </traci_server>

    <gui_only>
        <start value="true"/>
    </gui_only>

</sumoConfiguration>
-->

<tripinfos xmlns:xsi="http://www.w3.org/2001/XMLSchema-instance" xsi:noNamespaceSchemaLocation="http://sumo.dlr.de/xsd/tripinfo_file.xsd">
    <tripinfo id="SN_0" depart="0.00" departLane="3_1_2" departPos="5.10" departSpeed="0.00" departDelay="0.00" arrival="35.50" arrivalLane="1_5_2" arrivalPos="186.40" arrivalSpeed="12.18" duration="35.50" routeLength="395.15" waitingTime="0.00" waitingCount="0" stopTime="0.00" timeLoss="5.06" rerouteNo="0" devices="tripinfo_SN_0 ssm_SN_0" vType="cars" speedFactor="1.02" vaporized=""/>
    <tripinfo id="NS_1" depart="1.00" departLane="5_1_2" departPos="5.10" departSpeed="0.00" departDelay="0.00" arrival="36.50" arrivalLane="1_3_2" arrivalPos="186.40" arrivalSpeed="11.98" duration="35.50" routeLength="395.15" waitingTime="0.00" waitingCount="0" stopTime="0.00" timeLoss="4.93" rerouteNo="0" devices="tripinfo_NS_1 ssm_NS_1" vType="cars" speedFactor="1.15" vaporized=""/>
    <tripinfo id="SN_2" depart="5.00" departLane="3_1_2" departPos="5.10" departSpeed="0.00" departDelay="0.00" arrival="40.50" arrivalLane="1_5_2" arrivalPos="186.40" arrivalSpeed="12.97" duration="35.50" routeLength="395.15" waitingTime="0.00" waitingCount="0" stopTime="0.00" timeLoss="4.79" rerouteNo="0" devices="tripinfo_SN_2 ssm_SN_2" vType="cars" speedFactor="1.03" vaporized=""/>
    <tripinfo id="NE_6" depart="20.00" departLane="5_1_3" departPos="5.10" departSpeed="0.00" departDelay="0.00" arrival="59.50" arrivalLane="1_4_2" arrivalPos="186.40" arrivalSpeed="11.70" duration="39.50" routeLength="392.21" waitingTime="0.00" waitingCount="0" stopTime="0.00" timeLoss="8.95" rerouteNo="0" devices="tripinfo_NE_6 ssm_NE_6" vType="cars" speedFactor="1.04" vaporized=""/>
    <tripinfo id="WS_3" depart="7.00" departLane="2_1_1" departPos="5.10" departSpeed="0.00" departDelay="0.00" arrival="60.50" arrivalLane="1_3_1" arrivalPos="186.40" arrivalSpeed="12.47" duration="53.50" routeLength="379.43" waitingTime="13.00" waitingCount="1" stopTime="0.00" timeLoss="23.20" rerouteNo="0" devices="tripinfo_WS_3 ssm_WS_3" vType="cars" speedFactor="0.82" vaporized=""/>
    <tripinfo id="WS_5" depart="16.00" departLane="2_1_1" departPos="5.10" departSpeed="0.00" departDelay="0.00" arrival="63.00" arrivalLane="1_3_1" arrivalPos="186.40" arrivalSpeed="12.85" duration="47.00" routeLength="379.43" waitingTime="2.00" waitingCount="1" stopTime="0.00" timeLoss="16.88" rerouteNo="0" devices="tripinfo_WS_5 ssm_WS_5" vType="cars" speedFactor="1.07" vaporized=""/>
    <tripinfo id="WE_0" depart="1.00" departLane="2_1_2" departPos="5.10" departSpeed="0.00" departDelay="0.00" arrival="75.50" arrivalLane="1_4_2" arrivalPos="186.40" arrivalSpeed="11.63" duration="74.50" routeLength="395.15" waitingTime="34.00" waitingCount="1" stopTime="0.00" timeLoss="43.74" rerouteNo="0" devices="tripinfo_WE_0 ssm_WE_0" vType="cars" speedFactor="1.06" vaporized=""/>
    <tripinfo id="EW_0" depart="32.00" departLane="4_1_2" departPos="5.10" departSpeed="0.00" departDelay="0.00" arrival="76.00" arrivalLane="1_2_2" arrivalPos="186.40" arrivalSpeed="11.54" duration="44.00" routeLength="395.15" waitingTime="2.50" waitingCount="1" stopTime="0.00" timeLoss="13.57" rerouteNo="0" devices="tripinfo_EW_0 ssm_EW_0" vType="cars" speedFactor="0.94" vaporized=""/>
    <tripinfo id="EW_1" depart="37.00" departLane="4_1_2" departPos="5.10" departSpeed="0.00" departDelay="0.00" arrival="78.00" arrivalLane="1_2_2" arrivalPos="186.40" arrivalSpeed="11.76" duration="41.00" routeLength="395.15" waitingTime="0.00" waitingCount="0" stopTime="0.00" timeLoss="10.44" rerouteNo="0" devices="tripinfo_EW_1 ssm_EW_1" vType="cars" speedFactor="1.14" vaporized=""/>
    <tripinfo id="WE_1" depart="10.00" departLane="2_1_2" departPos="5.10" departSpeed="0.00" departDelay="0.00" arrival="79.00" arrivalLane="1_4_2" arrivalPos="186.40" arrivalSpeed="12.97" duration="69.00" routeLength="395.15" waitingTime="23.50" waitingCount="1" stopTime="0.00" timeLoss="38.18" rerouteNo="0" devices="tripinfo_WE_1 ssm_WE_1" vType="cars" speedFactor="1.12" vaporized=""/>
    <tripinfo id="EW_2" depart="42.00" departLane="4_1_2" departPos="5.10" departSpeed="0.00" departDelay="0.00" arrival="80.00" arrivalLane="1_2_2" arrivalPos="186.40" arrivalSpeed="12.77" duration="38.00" routeLength="395.15" waitingTime="0.00" waitingCount="0" stopTime="0.00" timeLoss="7.29" rerouteNo="0" devices="tripinfo_EW_2 ssm_EW_2" vType="cars" speedFactor="1.04" vaporized=""/>
    <tripinfo id="WE_2" depart="12.50" departLane="2_1_2" departPos="5.10" departSpeed="0.00" departDelay="0.50" arrival="80.50" arrivalLane="1_4_2" arrivalPos="186.40" arrivalSpeed="12.86" duration="68.00" routeLength="395.15" waitingTime="20.50" waitingCount="1" stopTime="0.00" timeLoss="37.50" rerouteNo="0" devices="tripinfo_WE_2 ssm_WE_2" vType="cars" speedFactor="1.01" vaporized=""/>
    <tripinfo id="EW_3" depart="46.00" departLane="4_1_2" departPos="5.10" departSpeed="0.00" departDelay="0.00" arrival="82.00" arrivalLane="1_2_2" arrivalPos="186.40" arrivalSpeed="12.57" duration="36.00" routeLength="395.15" waitingTime="0.00" waitingCount="0" stopTime="0.00" timeLoss="5.22" rerouteNo="0" devices="tripinfo_EW_3 ssm_EW_3" vType="cars" speedFactor="0.96" vaporized=""/>
    <tripinfo id="WE_3" depart="19.00" departLane="2_1_2" departPos="5.10" departSpeed="0.00" departDelay="0.00" arrival="82.50" arrivalLane="1_4_2" arrivalPos="186.40" arrivalSpeed="12.86" duration="63.50" routeLength="395.15" waitingTime="16.50" waitingCount="1" stopTime="0.00" timeLoss="32.81" rerouteNo="0" devices="tripinfo_WE_3 ssm_WE_3" vType="cars" speedFactor="0.96" vaporized=""/>
    <tripinfo id="WE_4" depart="26.00" departLane="2_1_2" departPos="5.10" departSpeed="0.00" departDelay="0.00" arrival="84.50" arrivalLane="1_4_2" arrivalPos="186.40" arrivalSpeed="12.63" duration="58.50" routeLength="395.15" waitingTime="12.00" waitingCount="1" stopTime="0.00" timeLoss="27.81" rerouteNo="0" devices="tripinfo_WE_4 ssm_WE_4" vType="cars" speedFactor="1.12" vaporized=""/>
    <tripinfo id="WE_5" depart="29.00" departLane="2_1_2" departPos="5.10" departSpeed="0.00" departDelay="0.00" arrival="87.00" arrivalLane="1_4_2" arrivalPos="186.40" arrivalSpeed="12.37" duration="58.00" routeLength="395.15" waitingTime="8.50" waitingCount="1" stopTime="0.00" timeLoss="27.57" rerouteNo="0" devices="tripinfo_WE_5 ssm_WE_5" vType="cars" speedFactor="1.00" vaporized=""/>
    <tripinfo id="WE_6" depart="31.50" departLane="2_1_2" departPos="5.10" departSpeed="0.00" departDelay="1.50" arrival="89.00" arrivalLane="1_4_2" arrivalPos="186.40" arrivalSpeed="12.94" duration="57.50" routeLength="395.15" waitingTime="7.00" waitingCount="1" stopTime="0.00" timeLoss="26.91" rerouteNo="0" devices="tripinfo_WE_6 ssm_WE_6" vType="cars" speedFactor="1.11" vaporized=""/>
    <tripinfo id="WE_7" depart="50.00" departLane="2_1_2" departPos="5.10" departSpeed="0.00" departDelay="0.00" arrival="91.00" arrivalLane="1_4_2" arrivalPos="186.40" arrivalSpeed="12.06" duration="41.00" routeLength="395.15" waitingTime="0.00" waitingCount="0" stopTime="0.00" timeLoss="10.23" rerouteNo="0" devices="tripinfo_WE_7 ssm_WE_7" vType="cars" speedFactor="1.00" vaporized=""/>
    <tripinfo id="NW_17" depart="53.00" departLane="5_1_1" departPos="5.10" departSpeed="0.00" departDelay="0.00" arrival="101.50" arrivalLane="1_2_1" arrivalPos="186.40" arrivalSpeed="12.77" duration="48.50" routeLength="379.43" waitingTime="7.50" waitingCount="1" stopTime="0.00" timeLoss="18.83" rerouteNo="0" devices="tripinfo_NW_17 ssm_NW_17" vType="cars" speedFactor="1.07" vaporized=""/>
    <tripinfo id="ES_4" depart="14.00" departLane="4_1_3" departPos="5.10" departSpeed="0.00" departDelay="0.00" arrival="102.50" arrivalLane="1_3_2" arrivalPos="186.40" arrivalSpeed="12.49" duration="88.50" routeLength="392.21" waitingTime="46.50" waitingCount="1" stopTime="0.00" timeLoss="57.78" rerouteNo="0" devices="tripinfo_ES_4 ssm_ES_4" vType="cars" speedFactor="1.03" vaporized=""/>
    <tripinfo id="SE_13" depart="36.00" departLane="3_1_1" departPos="5.10" departSpeed="0.00" departDelay="0.00" arrival="102.50" arrivalLane="1_4_1" arrivalPos="186.40" arrivalSpeed="11.63" duration="66.50" routeLength="379.42" waitingTime="26.00" waitingCount="1" stopTime="0.00" timeLoss="36.12" rerouteNo="0" devices="tripinfo_SE_13 ssm_SE_13" vType="cars" speedFactor="0.73" vaporized=""/>
    <tripinfo id="SE_15" depart="39.00" departLane="3_1_1" departPos="5.10" departSpeed="0.00" departDelay="0.00" arrival="104.50" arrivalLane="1_4_2" arrivalPos="186.40" arrivalSpeed="12.16" duration="65.50" routeLength="379.42" waitingTime="20.50" waitingCount="1" stopTime="0.00" timeLoss="35.28" rerouteNo="0" devices="tripinfo_SE_15 ssm_SE_15" vType="cars" speedFactor="1.00" vaporized=""/>
    <tripinfo id="NW_20" depart="69.00" departLane="5_1_1" departPos="5.10" departSpeed="0.00" departDelay="0.00" arrival="106.00" arrivalLane="1_2_1" arrivalPos="186.40" arrivalSpeed="12.22" duration="37.00" routeLength="379.43" waitingTime="0.00" waitingCount="0" stopTime="0.00" timeLoss="7.03" rerouteNo="0" devices="tripinfo_NW_20 ssm_NW_20" vType="cars" speedFactor="1.18" vaporized=""/>
    <tripinfo id="NS_7" depart="22.00" departLane="5_1_2" departPos="5.10" departSpeed="0.00" departDelay="0.00" arrival="118.00" arrivalLane="1_3_2" arrivalPos="186.40" arrivalSpeed="12.21" duration="96.00" routeLength="395.15" waitingTime="55.00" waitingCount="1" stopTime="0.00" timeLoss="65.54" rerouteNo="0" devices="tripinfo_NS_7 ssm_NS_7" vType="cars" speedFactor="1.23" vaporized=""/>
    <tripinfo id="SN_8" depart="25.00" departLane="3_1_2" departPos="5.10" departSpeed="0.00" departDelay="0.00" arrival="118.50" arrivalLane="1_5_2" arrivalPos="186.40" arrivalSpeed="12.05" duration="93.50" routeLength="395.15" waitingTime="51.00" waitingCount="1" stopTime="0.00" timeLoss="62.84" rerouteNo="0" devices="tripinfo_SN_8 ssm_SN_8" vType="cars" speedFactor="1.01" vaporized=""/>
    <tripinfo id="SN_9" depart="28.00" departLane="3_1_2" departPos="5.10" departSpeed="0.00" departDelay="2.00" arrival="120.50" arrivalLane="1_5_2" arrivalPos="186.40" arrivalSpeed="12.72" duration="92.50" routeLength="395.15" waitingTime="46.50" waitingCount="1" stopTime="0.00" timeLoss="61.90" rerouteNo="0" devices="tripinfo_SN_9 ssm_SN_9" vType="cars" speedFactor="1.02" vaporized=""/>
    <tripinfo id="NS_12" depart="34.00" departLane="5_1_2" departPos="5.10" departSpeed="0.00" departDelay="0.00" arrival="121.00" arrivalLane="1_3_2" arrivalPos="186.40" arrivalSpeed="12.68" duration="87.00" routeLength="395.15" waitingTime="41.00" waitingCount="1" stopTime="0.00" timeLoss="56.31" rerouteNo="0" devices="tripinfo_NS_12 ssm_NS_12" vType="cars" speedFactor="1.13" vaporized=""/>
    <tripinfo id="SN_10" depart="31.50" departLane="3_1_2" departPos="5.10" departSpeed="0.00" departDelay="2.50" arrival="122.50" arrivalLane="1_5_2" arrivalPos="186.40" arrivalSpeed="12.32" duration="91.00" routeLength="395.15" waitingTime="44.50" waitingCount="1" stopTime="0.00" timeLoss="60.15" rerouteNo="0" devices="tripinfo_SN_10 ssm_SN_10" vType="cars" speedFactor="0.95" vaporized=""/>
    <tripinfo id="NS_19" depart="66.00" departLane="5_1_2" departPos="5.10" departSpeed="0.00" departDelay="0.00" arrival="123.50" arrivalLane="1_3_2" arrivalPos="186.40" arrivalSpeed="12.70" duration="57.50" routeLength="395.15" waitingTime="10.50" waitingCount="1" stopTime="0.00" timeLoss="26.78" rerouteNo="0" devices="tripinfo_NS_19 ssm_NS_19" vType="cars" speedFactor="1.12" vaporized=""/>
    <tripinfo id="SN_11" depart="34.00" departLane="3_1_2" departPos="5.10" departSpeed="0.00" departDelay="4.00" arrival="124.00" arrivalLane="1_5_2" arrivalPos="186.40" arrivalSpeed="12.20" duration="90.00" routeLength="395.15" waitingTime="42.50" waitingCount="1" stopTime="0.00" timeLoss="59.51" rerouteNo="0" devices="tripinfo_SN_11 ssm_SN_11" vType="cars" speedFactor="1.16" vaporized=""/>
    <tripinfo id="NS_24" depart="84.00" departLane="5_1_2" departPos="5.10" departSpeed="0.00" departDelay="0.00" arrival="125.50" arrivalLane="1_3_2" arrivalPos="186.40" arrivalSpeed="12.46" duration="41.50" routeLength="395.15" waitingTime="0.00" waitingCount="0" stopTime="0.00" timeLoss="10.76" rerouteNo="0" devices="tripinfo_NS_24 ssm_NS_24" vType="cars" speedFactor="1.05" vaporized=""/>
    <tripinfo id="SN_14" depart="38.00" departLane="3_1_2" departPos="5.10" departSpeed="0.00" departDelay="0.00" arrival="126.00" arrivalLane="1_5_2" arrivalPos="186.40" arrivalSpeed="12.89" duration="88.00" routeLength="395.15" waitingTime="40.50" waitingCount="1" stopTime="0.00" timeLoss="57.34" rerouteNo="0" devices="tripinfo_SN_14 ssm_SN_14" vType="cars" speedFactor="0.89" vaporized=""/>
    <tripinfo id="NS_25" depart="92.00" departLane="5_1_2" departPos="5.10" departSpeed="0.00" departDelay="0.00" arrival="127.50" arrivalLane="1_3_2" arrivalPos="186.40" arrivalSpeed="12.38" duration="35.50" routeLength="395.15" waitingTime="0.00" waitingCount="0" stopTime="0.00" timeLoss="4.89" rerouteNo="0" devices="tripinfo_NS_25 ssm_NS_25" vType="cars" speedFactor="1.03" vaporized=""/>
    <tripinfo id="SN_16" depart="41.00" departLane="3_1_2" departPos="5.10" departSpeed="0.00" departDelay="1.00" arrival="128.00" arrivalLane="1_5_2" arrivalPos="186.40" arrivalSpeed="12.06" duration="87.00" routeLength="395.15" waitingTime="38.00" waitingCount="1" stopTime="0.00" timeLoss="56.20" rerouteNo="0" devices="tripinfo_SN_16 ssm_SN_16" vType="cars" speedFactor="0.97" vaporized=""/>
    <tripinfo id="SN_18" depart="60.00" departLane="3_1_2" departPos="5.10" departSpeed="0.00" departDelay="0.00" arrival="129.50" arrivalLane="1_5_2" arrivalPos="186.40" arrivalSpeed="12.25" duration="69.50" routeLength="395.15" waitingTime="21.00" waitingCount="1" stopTime="0.00" timeLoss="39.01" rerouteNo="0" devices="tripinfo_SN_18 ssm_SN_18" vType="cars" speedFactor="0.93" vaporized=""/>
    <tripinfo id="SN_21" depart="75.00" departLane="3_1_2" departPos="5.10" departSpeed="0.00" departDelay="0.00" arrival="131.50" arrivalLane="1_5_2" arrivalPos="186.40" arrivalSpeed="11.71" duration="56.50" routeLength="395.15" waitingTime="8.00" waitingCount="1" stopTime="0.00" timeLoss="25.95" rerouteNo="0" devices="tripinfo_SN_21 ssm_SN_21" vType="cars" speedFactor="1.08" vaporized=""/>
    <tripinfo id="SN_23" depart="83.00" departLane="3_1_2" departPos="5.10" departSpeed="0.00" departDelay="0.00" arrival="134.00" arrivalLane="1_5_2" arrivalPos="186.40" arrivalSpeed="12.40" duration="51.00" routeLength="395.15" waitingTime="1.50" waitingCount="1" stopTime="0.00" timeLoss="20.23" rerouteNo="0" devices="tripinfo_SN_23 ssm_SN_23" vType="cars" speedFactor="0.99" vaporized=""/>
    <tripinfo id="SE_27" depart="101.00" departLane="3_1_1" departPos="5.10" departSpeed="0.00" departDelay="0.00" arrival="139.50" arrivalLane="1_4_1" arrivalPos="186.40" arrivalSpeed="11.89" duration="38.50" routeLength="379.42" waitingTime="0.00" waitingCount="0" stopTime="0.00" timeLoss="8.18" rerouteNo="0" devices="tripinfo_SE_27 ssm_SE_27" vType="cars" speedFactor="0.89" vaporized=""/>
    <tripinfo id="EN_26" depart="99.00" departLane="4_1_1" departPos="5.10" departSpeed="0.00" departDelay="0.00" arrival="146.50" arrivalLane="1_5_1" arrivalPos="186.40" arrivalSpeed="12.55" duration="47.50" routeLength="379.42" waitingTime="6.50" waitingCount="1" stopTime="0.00" timeLoss="17.28" rerouteNo="0" devices="tripinfo_EN_26 ssm_EN_26" vType="cars" speedFactor="0.90" vaporized=""/>
    <tripinfo id="WS_22" depart="79.00" departLane="2_1_1" departPos="5.10" departSpeed="0.00" departDelay="0.00" arrival="147.00" arrivalLane="1_3_1" arrivalPos="186.40" arrivalSpeed="12.75" duration="68.00" routeLength="379.43" waitingTime="28.00" waitingCount="1" stopTime="0.00" timeLoss="38.27" rerouteNo="0" devices="tripinfo_WS_22 ssm_WS_22" vType="cars" speedFactor="1.14" vaporized=""/>
    <tripinfo id="EN_31" depart="117.00" departLane="4_1_1" departPos="5.10" departSpeed="0.00" departDelay="0.00" arrival="153.50" arrivalLane="1_5_1" arrivalPos="186.40" arrivalSpeed="11.55" duration="36.50" routeLength="379.42" waitingTime="0.00" waitingCount="0" stopTime="0.00" timeLoss="6.43" rerouteNo="0" devices="tripinfo_EN_31 ssm_EN_31" vType="cars" speedFactor="1.06" vaporized=""/>
    <tripinfo id="EW_4" depart="62.00" departLane="4_1_2" departPos="5.10" departSpeed="0.00" departDelay="0.00" arrival="162.50" arrivalLane="1_2_2" arrivalPos="186.40" arrivalSpeed="12.02" duration="100.50" routeLength="395.15" waitingTime="60.00" waitingCount="1" stopTime="0.00" timeLoss="69.93" rerouteNo="0" devices="tripinfo_EW_4 ssm_EW_4" vType="cars" speedFactor="1.06" vaporized=""/>
    <tripinfo id="WE_8" depart="78.00" departLane="2_1_2" departPos="5.10" departSpeed="0.00" departDelay="0.00" arrival="162.50" arrivalLane="1_4_2" arrivalPos="186.40" arrivalSpeed="11.75" duration="84.50" routeLength="395.15" waitingTime="44.00" waitingCount="1" stopTime="0.00" timeLoss="53.76" rerouteNo="0" devices="tripinfo_WE_8 ssm_WE_8" vType="cars" speedFactor="0.91" vaporized=""/>
    <tripinfo id="EW_5" depart="82.00" departLane="4_1_2" departPos="5.10" departSpeed="0.00" departDelay="0.00" arrival="165.00" arrivalLane="1_2_2" arrivalPos="186.40" arrivalSpeed="12.50" duration="83.00" routeLength="395.15" waitingTime="37.50" waitingCount="1" stopTime="0.00" timeLoss="52.45" rerouteNo="0" devices="tripinfo_EW_5 ssm_EW_5" vType="cars" speedFactor="0.88" vaporized=""/>
    <tripinfo id="WE_9" depart="83.00" departLane="2_1_2" departPos="5.10" departSpeed="0.00" departDelay="0.00" arrival="165.50" arrivalLane="1_4_2" arrivalPos="186.40" arrivalSpeed="12.48" duration="82.50" routeLength="395.15" waitingTime="36.50" waitingCount="1" stopTime="0.00" timeLoss="51.66" rerouteNo="0" devices="tripinfo_WE_9 ssm_WE_9" vType="cars" speedFactor="1.08" vaporized=""/>
    <tripinfo id="WE_10" depart="86.00" departLane="2_1_2" departPos="5.10" departSpeed="0.00" departDelay="2.00" arrival="167.00" arrivalLane="1_4_2" arrivalPos="186.40" arrivalSpeed="12.18" duration="81.00" routeLength="395.15" waitingTime="34.00" waitingCount="1" stopTime="0.00" timeLoss="50.47" rerouteNo="0" devices="tripinfo_WE_10 ssm_WE_10" vType="cars" speedFactor="1.13" vaporized=""/>
    <tripinfo id="EW_6" depart="91.00" departLane="4_1_2" departPos="5.10" departSpeed="0.00" departDelay="0.00" arrival="167.50" arrivalLane="1_2_2" arrivalPos="186.40" arrivalSpeed="11.92" duration="76.50" routeLength="395.15" waitingTime="29.50" waitingCount="1" stopTime="0.00" timeLoss="45.81" rerouteNo="0" devices="tripinfo_EW_6 ssm_EW_6" vType="cars" speedFactor="1.00" vaporized=""/>
    <tripinfo id="WE_11" depart="89.00" departLane="2_1_2" departPos="5.10" departSpeed="0.00" departDelay="4.00" arrival="169.00" arrivalLane="1_4_2" arrivalPos="186.40" arrivalSpeed="12.04" duration="80.00" routeLength="395.15" waitingTime="32.00" waitingCount="1" stopTime="0.00" timeLoss="49.37" rerouteNo="0" devices="tripinfo_WE_11 ssm_WE_11" vType="cars" speedFactor="0.91" vaporized=""/>
    <tripinfo id="EW_7" depart="96.00" departLane="4_1_2" departPos="5.10" departSpeed="0.00" departDelay="0.00" arrival="169.50" arrivalLane="1_2_2" arrivalPos="186.40" arrivalSpeed="12.36" duration="73.50" routeLength="395.15" waitingTime="26.50" waitingCount="1" stopTime="0.00" timeLoss="42.70" rerouteNo="0" devices="tripinfo_EW_7 ssm_EW_7" vType="cars" speedFactor="0.98" vaporized=""/>
    <tripinfo id="WS_38" depart="133.00" departLane="2_1_1" departPos="5.10" departSpeed="0.00" departDelay="0.00" arrival="171.00" arrivalLane="1_3_1" arrivalPos="186.40" arrivalSpeed="12.94" duration="38.00" routeLength="379.43" waitingTime="0.00" waitingCount="0" stopTime="0.00" timeLoss="7.70" rerouteNo="0" devices="tripinfo_WS_38 ssm_WS_38" vType="cars" speedFactor="0.90" vaporized=""/>
    <tripinfo id="WE_12" depart="98.00" departLane="2_1_2" departPos="5.10" departSpeed="0.00" departDelay="0.00" arrival="171.50" arrivalLane="1_4_2" arrivalPos="186.40" arrivalSpeed="12.04" duration="73.50" routeLength="395.15" waitingTime="26.50" waitingCount="1" stopTime="0.00" timeLoss="42.79" rerouteNo="0" devices="tripinfo_WE_12 ssm_WE_12" vType="cars" speedFactor="0.94" vaporized=""/>
    <tripinfo id="EW_8" depart="98.50" departLane="4_1_2" departPos="5.10" departSpeed="0.00" departDelay="0.50" arrival="172.00" arrivalLane="1_2_2" arrivalPos="186.40" arrivalSpeed="12.75" duration="73.50" routeLength="395.15" waitingTime="24.50" waitingCount="1" stopTime="0.00" timeLoss="42.82" rerouteNo="0" devices="tripinfo_EW_8 ssm_EW_8" vType="cars" speedFactor="1.09" vaporized=""/>
    <tripinfo id="WE_13" depart="121.00" departLane="2_1_2" departPos="5.10" departSpeed="0.00" departDelay="0.00" arrival="173.50" arrivalLane="1_4_2" arrivalPos="186.40" arrivalSpeed="11.90" duration="52.50" routeLength="395.15" waitingTime="3.50" waitingCount="2" stopTime="0.00" timeLoss="22.10" rerouteNo="0" devices="tripinfo_WE_13 ssm_WE_13" vType="cars" speedFactor="1.03" vaporized=""/>
    <tripinfo id="EW_9" depart="108.00" departLane="4_1_2" departPos="5.10" departSpeed="0.00" departDelay="0.00" arrival="174.00" arrivalLane="1_2_2" arrivalPos="186.40" arrivalSpeed="12.31" duration="66.00" routeLength="395.15" waitingTime="16.50" waitingCount="1" stopTime="0.00" timeLoss="35.21" rerouteNo="0" devices="tripinfo_EW_9 ssm_EW_9" vType="cars" speedFactor="0.96" vaporized=""/>
    <tripinfo id="WE_14" depart="124.00" departLane="2_1_2" departPos="5.10" departSpeed="0.00" departDelay="1.00" arrival="175.50" arrivalLane="1_4_2" arrivalPos="186.40" arrivalSpeed="12.12" duration="51.50" routeLength="395.15" waitingTime="1.00" waitingCount="1" stopTime="0.00" timeLoss="20.96" rerouteNo="0" devices="tripinfo_WE_14 ssm_WE_14" vType="cars" speedFactor="0.94" vaporized=""/>
    <tripinfo id="EW_10" depart="112.00" departLane="4_1_2" departPos="5.10" departSpeed="0.00" departDelay="0.00" arrival="176.00" arrivalLane="1_2_2" arrivalPos="186.40" arrivalSpeed="11.58" duration="64.00" routeLength="395.15" waitingTime="14.00" waitingCount="1" stopTime="0.00" timeLoss="33.45" rerouteNo="0" devices="tripinfo_EW_10 ssm_EW_10" vType="cars" speedFactor="1.03" vaporized=""/>
    <personinfo id="person_NS_w.0" depart="13.50" type="DEFAULT_PEDTYPE" speedFactor="1.16" duration="164.00" waitingTime="0.00" timeLoss="26.46" traveltime="164.00">
        <walk depart="13.50" departPos="100.00" arrival="177.50" arrivalPos="93.20" duration="164.00" routeLength="221.25" timeLoss="26.46" maxSpeed="1.61"/>
    </personinfo>
    <tripinfo id="WE_15" depart="132.00" departLane="2_1_2" departPos="5.10" departSpeed="0.00" departDelay="0.00" arrival="177.50" arrivalLane="1_4_2" arrivalPos="186.40" arrivalSpeed="12.12" duration="45.50" routeLength="395.15" waitingTime="0.00" waitingCount="0" stopTime="0.00" timeLoss="14.81" rerouteNo="0" devices="tripinfo_WE_15 ssm_WE_15" vType="cars" speedFactor="0.97" vaporized=""/>
    <tripinfo id="EW_11" depart="115.00" departLane="4_1_2" departPos="5.10" departSpeed="0.00" departDelay="2.00" arrival="178.00" arrivalLane="1_2_2" arrivalPos="186.40" arrivalSpeed="12.14" duration="63.00" routeLength="395.15" waitingTime="12.50" waitingCount="1" stopTime="0.00" timeLoss="32.41" rerouteNo="0" devices="tripinfo_EW_11 ssm_EW_11" vType="cars" speedFactor="1.08" vaporized=""/>
    <tripinfo id="WE_16" depart="135.00" departLane="2_1_2" departPos="5.10" departSpeed="0.00" departDelay="0.00" arrival="179.50" arrivalLane="1_4_2" arrivalPos="186.40" arrivalSpeed="11.52" duration="44.50" routeLength="395.15" waitingTime="0.00" waitingCount="0" stopTime="0.00" timeLoss="13.75" rerouteNo="0" devices="tripinfo_WE_16 ssm_WE_16" vType="cars" speedFactor="1.10" vaporized=""/>
    <personinfo id="person_SN_e.0" depart="38.50" type="DEFAULT_PEDTYPE" speedFactor="1.19" duration="141.50" waitingTime="0.00" timeLoss="7.46" traveltime="141.50">
        <walk depart="38.50" departPos="100.00" arrival="180.00" arrivalPos="93.20" duration="141.50" routeLength="221.24" timeLoss="7.46" maxSpeed="1.65"/>
    </personinfo>
    <tripinfo id="EW_12" depart="119.00" departLane="4_1_2" departPos="5.10" departSpeed="0.00" departDelay="0.00" arrival="180.00" arrivalLane="1_2_2" arrivalPos="186.40" arrivalSpeed="12.93" duration="61.00" routeLength="395.15" waitingTime="10.00" waitingCount="1" stopTime="0.00" timeLoss="30.43" rerouteNo="0" devices="tripinfo_EW_12 ssm_EW_12" vType="cars" speedFactor="1.03" vaporized=""/>
    <tripinfo id="WE_17" depart="138.00" departLane="2_1_2" departPos="5.10" departSpeed="0.00" departDelay="1.00" arrival="181.00" arrivalLane="1_4_2" arrivalPos="186.40" arrivalSpeed="11.92" duration="43.00" routeLength="395.15" waitingTime="0.00" waitingCount="0" stopTime="0.00" timeLoss="12.47" rerouteNo="0" devices="tripinfo_WE_17 ssm_WE_17" vType="cars" speedFactor="1.00" vaporized=""/>
    <tripinfo id="SE_33" depart="122.00" departLane="3_1_1" departPos="5.10" departSpeed="0.00" departDelay="0.00" arrival="192.50" arrivalLane="1_4_1" arrivalPos="186.40" arrivalSpeed="11.64" duration="70.50" routeLength="379.42" waitingTime="30.50" waitingCount="1" stopTime="0.00" timeLoss="40.39" rerouteNo="0" devices="tripinfo_SE_33 ssm_SE_33" vType="cars" speedFactor="1.08" vaporized=""/>
    <tripinfo id="NW_42" depart="145.00" departLane="5_1_1" departPos="5.10" departSpeed="0.00" departDelay="0.00" arrival="193.00" arrivalLane="1_2_1" arrivalPos="186.40" arrivalSpeed="12.22" duration="48.00" routeLength="379.43" waitingTime="7.00" waitingCount="1" stopTime="0.00" timeLoss="18.03" rerouteNo="0" devices="tripinfo_NW_42 ssm_NW_42" vType="cars" speedFactor="1.03" vaporized=""/>
    <tripinfo id="ES_40" depart="135.00" departLane="4_1_3" departPos="5.10" departSpeed="0.00" departDelay="0.00" arrival="193.50" arrivalLane="1_3_2" arrivalPos="186.40" arrivalSpeed="12.63" duration="58.50" routeLength="392.21" waitingTime="17.50" waitingCount="1" stopTime="0.00" timeLoss="27.93" rerouteNo="0" devices="tripinfo_ES_40 ssm_ES_40" vType="cars" speedFactor="1.07" vaporized=""/>
    <tripinfo id="WN_34" depart="123.00" departLane="2_1_3" departPos="5.10" departSpeed="0.00" departDelay="0.00" arrival="194.50" arrivalLane="1_5_2" arrivalPos="186.40" arrivalSpeed="12.15" duration="71.50" routeLength="392.21" waitingTime="30.00" waitingCount="1" stopTime="0.00" timeLoss="40.38" rerouteNo="0" devices="tripinfo_WN_34 ssm_WN_34" vType="cars" speedFactor="0.92" vaporized=""/>
    <tripinfo id="SE_48" depart="157.00" departLane="3_1_1" departPos="5.10" departSpeed="0.00" departDelay="0.00" arrival="194.50" arrivalLane="1_4_1" arrivalPos="186.40" arrivalSpeed="12.97" duration="37.50" routeLength="379.42" waitingTime="0.00" waitingCount="0" stopTime="0.00" timeLoss="7.44" rerouteNo="0" devices="tripinfo_SE_48 ssm_SE_48" vType="cars" speedFactor="1.02" vaporized=""/>
    <tripinfo id="NW_44" depart="150.00" departLane="5_1_1" departPos="5.10" departSpeed="0.00" departDelay="0.00" arrival="195.00" arrivalLane="1_2_1" arrivalPos="186.40" arrivalSpeed="12.53" duration="45.00" routeLength="379.43" waitingTime="0.00" waitingCount="0" stopTime="0.00" timeLoss="15.23" rerouteNo="0" devices="tripinfo_NW_44 ssm_NW_44" vType="cars" speedFactor="1.06" vaporized=""/>
    <tripinfo id="SN_28" depart="105.00" departLane="3_1_2" departPos="5.10" departSpeed="0.00" departDelay="0.00" arrival="209.00" arrivalLane="1_5_2" arrivalPos="186.40" arrivalSpeed="12.46" duration="104.00" routeLength="395.15" waitingTime="62.00" waitingCount="1" stopTime="0.00" timeLoss="73.20" rerouteNo="0" devices="tripinfo_SN_28 ssm_SN_28" vType="cars" speedFactor="1.14" vaporized=""/>
    <tripinfo id="NS_30" depart="111.00" departLane="5_1_2" departPos="5.10" departSpeed="0.00" departDelay="0.00" arrival="209.00" arrivalLane="1_3_2" arrivalPos="186.40" arrivalSpeed="11.75" duration="98.00" routeLength="395.15" waitingTime="56.50" waitingCount="1" stopTime="0.00" timeLoss="67.47" rerouteNo="0" devices="tripinfo_NS_30 ssm_NS_30" vType="cars" speedFactor="1.09" vaporized=""/>