<?xml version="1.0" encoding="UTF-8"?>

<!-- generated on 2025-06-22 21:54:22 by Eclipse SUMO GUI Version 1.22.0
<sumoConfiguration xmlns:xsi="http://www.w3.org/2001/XMLSchema-instance" xsi:noNamespaceSchemaLocation="http://sumo.dlr.de/xsd/sumoConfiguration.xsd">

    <input>
        <net-file value="/home/naderian/Desktop/Shakiba/MMSVCC/environment/network_model/single_intersection_pedestrian_X.net.xml"/>
        <route-files value="/home/naderian/Desktop/Shakiba/MMSVCC/environment/network_model/single_intersection.rou.xml"/>
        <additional-files value="/home/naderian/Desktop/Shakiba/MMSVCC/environment/network_model/single_intersection_Concurrent.add.xml"/>
    </input>

    <output>
        <queue-output value="/home/naderian/Desktop/Shakiba/MMSVCC/environment/simulation_data/single_intersection/queues_multi_scale_asymmetric_pene_100.xml"/>
        <tripinfo-output value="/home/naderian/Desktop/Shakiba/MMSVCC/environment/simulation_data/single_intersection/tripinfo_multi_scale_asymmetric_pene_100.xml"/>
    </output>

    <time>
        <begin value="0"/>
        <step-length value="0.5"/>
    </time>

    <processing>
        <waiting-time-memory value="1000"/>
    </processing>

    <report>
        <verbose value="true"/>
        <no-step-log value="true"/>
    </report>

    <traci_server>
        <remote-port value="54987"/>
    </traci_server>

    <gui_only>
        <start value="true"/>
    </gui_only>

</sumoConfiguration>
-->

<tripinfos xmlns:xsi="http://www.w3.org/2001/XMLSchema-instance" xsi:noNamespaceSchemaLocation="http://sumo.dlr.de/xsd/tripinfo_file.xsd">
    <tripinfo id="SN_0" depart="0.00" departLane="3_1_2" departPos="5.10" departSpeed="0.00" departDelay="0.00" arrival="35.00" arrivalLane="1_5_1" arrivalPos="186.40" arrivalSpeed="13.00" duration="35.00" routeLength="395.15" waitingTime="0.00" waitingCount="0" stopTime="0.00" timeLoss="4.21" rerouteNo="0" devices="tripinfo_SN_0" vType="cars" speedFactor="1.02" vaporized=""/>
    <tripinfo id="SN_2" depart="5.00" departLane="3_1_2" departPos="5.10" departSpeed="0.00" departDelay="0.00" arrival="40.50" arrivalLane="1_5_1" arrivalPos="186.40" arrivalSpeed="13.00" duration="35.50" routeLength="395.15" waitingTime="0.00" waitingCount="0" stopTime="0.00" timeLoss="4.90" rerouteNo="0" devices="tripinfo_SN_2" vType="cars" speedFactor="1.03" vaporized=""/>
    <tripinfo id="WE_0" depart="1.00" departLane="2_1_2" departPos="5.10" departSpeed="0.00" departDelay="0.00" arrival="53.00" arrivalLane="1_4_1" arrivalPos="186.40" arrivalSpeed="13.00" duration="52.00" routeLength="395.15" waitingTime="12.00" waitingCount="2" stopTime="0.00" timeLoss="21.55" rerouteNo="0" devices="tripinfo_WE_0" vType="cars" speedFactor="1.06" vaporized=""/>
    <tripinfo id="WE_1" depart="10.00" departLane="2_1_2" departPos="5.10" departSpeed="0.00" departDelay="0.00" arrival="53.00" arrivalLane="1_4_2" arrivalPos="186.40" arrivalSpeed="13.00" duration="43.00" routeLength="395.15" waitingTime="4.00" waitingCount="1" stopTime="0.00" timeLoss="12.55" rerouteNo="0" devices="tripinfo_WE_1" vType="cars" speedFactor="1.12" vaporized=""/>
    <tripinfo id="WS_3" depart="7.00" departLane="2_1_1" departPos="5.10" departSpeed="0.00" departDelay="0.00" arrival="54.50" arrivalLane="1_3_1" arrivalPos="186.40" arrivalSpeed="13.00" duration="47.50" routeLength="379.43" waitingTime="2.00" waitingCount="2" stopTime="0.00" timeLoss="17.02" rerouteNo="0" devices="tripinfo_WS_3" vType="cars" speedFactor="0.82" vaporized=""/>
    <tripinfo id="WE_2" depart="12.50" departLane="2_1_2" departPos="5.10" departSpeed="0.00" departDelay="0.50" arrival="54.50" arrivalLane="1_4_1" arrivalPos="186.40" arrivalSpeed="13.00" duration="42.00" routeLength="395.15" waitingTime="0.00" waitingCount="0" stopTime="0.00" timeLoss="11.59" rerouteNo="0" devices="tripinfo_WE_2" vType="cars" speedFactor="1.01" vaporized=""/>
    <tripinfo id="WS_5" depart="16.00" departLane="2_1_1" departPos="5.10" departSpeed="0.00" departDelay="0.00" arrival="56.50" arrivalLane="1_3_1" arrivalPos="186.40" arrivalSpeed="13.00" duration="40.50" routeLength="379.43" waitingTime="0.00" waitingCount="0" stopTime="0.00" timeLoss="10.38" rerouteNo="0" devices="tripinfo_WS_5" vType="cars" speedFactor="1.07" vaporized=""/>
    <tripinfo id="WE_3" depart="19.00" departLane="2_1_2" departPos="5.10" departSpeed="0.00" departDelay="0.00" arrival="59.00" arrivalLane="1_4_2" arrivalPos="186.40" arrivalSpeed="11.00" duration="40.00" routeLength="395.15" waitingTime="0.00" waitingCount="0" stopTime="0.00" timeLoss="9.48" rerouteNo="0" devices="tripinfo_WE_3" vType="cars" speedFactor="0.96" vaporized=""/>
    <tripinfo id="WE_4" depart="26.00" departLane="2_1_2" departPos="5.10" departSpeed="0.00" departDelay="0.00" arrival="64.00" arrivalLane="1_4_1" arrivalPos="186.40" arrivalSpeed="11.00" duration="38.00" routeLength="395.15" waitingTime="0.00" waitingCount="0" stopTime="0.00" timeLoss="7.49" rerouteNo="0" devices="tripinfo_WE_4" vType="cars" speedFactor="1.12" vaporized=""/>
    <tripinfo id="NS_1" depart="1.00" departLane="5_1_2" departPos="5.10" departSpeed="0.00" departDelay="0.00" arrival="73.00" arrivalLane="1_3_1" arrivalPos="186.40" arrivalSpeed="13.00" duration="72.00" routeLength="395.15" waitingTime="31.00" waitingCount="1" stopTime="0.00" timeLoss="41.55" rerouteNo="0" devices="tripinfo_NS_1" vType="cars" speedFactor="1.15" vaporized=""/>
    <tripinfo id="NS_7" depart="22.00" departLane="5_1_2" departPos="5.10" departSpeed="0.00" departDelay="0.00" arrival="73.00" arrivalLane="1_3_2" arrivalPos="186.40" arrivalSpeed="13.00" duration="51.00" routeLength="395.15" waitingTime="8.00" waitingCount="1" stopTime="0.00" timeLoss="20.55" rerouteNo="0" devices="tripinfo_NS_7" vType="cars" speedFactor="1.23" vaporized=""/>
    <tripinfo id="SN_8" depart="25.00" departLane="3_1_2" departPos="5.10" departSpeed="0.00" departDelay="0.00" arrival="73.00" arrivalLane="1_5_1" arrivalPos="186.40" arrivalSpeed="13.00" duration="48.00" routeLength="395.15" waitingTime="7.00" waitingCount="2" stopTime="0.00" timeLoss="17.55" rerouteNo="0" devices="tripinfo_SN_8" vType="cars" speedFactor="1.01" vaporized=""/>
    <tripinfo id="SN_10" depart="30.50" departLane="3_1_2" departPos="5.10" departSpeed="0.00" departDelay="1.50" arrival="73.00" arrivalLane="1_5_2" arrivalPos="186.40" arrivalSpeed="13.00" duration="42.50" routeLength="395.15" waitingTime="4.00" waitingCount="1" stopTime="0.00" timeLoss="12.05" rerouteNo="0" devices="tripinfo_SN_10" vType="cars" speedFactor="0.95" vaporized=""/>
    <tripinfo id="SN_9" depart="27.50" departLane="3_1_2" departPos="5.10" departSpeed="0.00" departDelay="1.50" arrival="74.50" arrivalLane="1_5_1" arrivalPos="186.40" arrivalSpeed="13.00" duration="47.00" routeLength="395.15" waitingTime="2.50" waitingCount="5" stopTime="0.00" timeLoss="16.59" rerouteNo="0" devices="tripinfo_SN_9" vType="cars" speedFactor="1.02" vaporized=""/>
    <tripinfo id="SN_11" depart="33.00" departLane="3_1_2" departPos="5.10" departSpeed="0.00" departDelay="3.00" arrival="74.50" arrivalLane="1_5_2" arrivalPos="186.40" arrivalSpeed="13.00" duration="41.50" routeLength="395.15" waitingTime="0.00" waitingCount="0" stopTime="0.00" timeLoss="11.09" rerouteNo="0" devices="tripinfo_SN_11" vType="cars" speedFactor="1.16" vaporized=""/>
    <tripinfo id="NS_12" depart="34.00" departLane="5_1_2" departPos="5.10" departSpeed="0.00" departDelay="0.00" arrival="74.50" arrivalLane="1_3_1" arrivalPos="186.40" arrivalSpeed="13.00" duration="40.50" routeLength="395.15" waitingTime="0.00" waitingCount="0" stopTime="0.00" timeLoss="10.09" rerouteNo="0" devices="tripinfo_NS_12" vType="cars" speedFactor="1.13" vaporized=""/>
    <tripinfo id="SN_14" depart="38.00" departLane="3_1_2" departPos="5.10" departSpeed="0.00" departDelay="0.00" arrival="79.00" arrivalLane="1_5_2" arrivalPos="186.40" arrivalSpeed="11.00" duration="41.00" routeLength="395.15" waitingTime="0.00" waitingCount="0" stopTime="0.00" timeLoss="10.40" rerouteNo="0" devices="tripinfo_SN_14" vType="cars" speedFactor="0.89" vaporized=""/>
    <tripinfo id="SE_13" depart="36.00" departLane="3_1_1" departPos="5.10" departSpeed="0.00" departDelay="0.00" arrival="80.50" arrivalLane="1_4_1" arrivalPos="186.40" arrivalSpeed="10.19" duration="44.50" routeLength="379.42" waitingTime="0.00" waitingCount="0" stopTime="0.00" timeLoss="13.71" rerouteNo="0" devices="tripinfo_SE_13" vType="cars" speedFactor="0.73" vaporized=""/>
    <tripinfo id="SN_16" depart="40.50" departLane="3_1_2" departPos="5.10" departSpeed="0.00" departDelay="0.50" arrival="80.50" arrivalLane="1_5_2" arrivalPos="186.40" arrivalSpeed="13.00" duration="40.00" routeLength="395.15" waitingTime="0.00" waitingCount="0" stopTime="0.00" timeLoss="9.30" rerouteNo="0" devices="tripinfo_SN_16" vType="cars" speedFactor="0.97" vaporized=""/>
    <tripinfo id="SE_15" depart="39.00" departLane="3_1_1" departPos="5.10" departSpeed="0.00" departDelay="0.00" arrival="82.00" arrivalLane="1_4_1" arrivalPos="186.40" arrivalSpeed="13.00" duration="43.00" routeLength="379.42" waitingTime="0.00" waitingCount="0" stopTime="0.00" timeLoss="13.07" rerouteNo="0" devices="tripinfo_SE_15" vType="cars" speedFactor="1.00" vaporized=""/>
    <tripinfo id="WE_5" depart="29.00" departLane="2_1_2" departPos="5.10" departSpeed="0.00" departDelay="0.00" arrival="93.00" arrivalLane="1_4_1" arrivalPos="186.40" arrivalSpeed="13.00" duration="64.00" routeLength="395.15" waitingTime="14.00" waitingCount="3" stopTime="0.00" timeLoss="33.55" rerouteNo="0" devices="tripinfo_WE_5" vType="cars" speedFactor="1.00" vaporized=""/>
    <tripinfo id="WE_6" depart="32.50" departLane="2_1_2" departPos="5.10" departSpeed="0.00" departDelay="2.50" arrival="93.00" arrivalLane="1_4_2" arrivalPos="186.40" arrivalSpeed="13.00" duration="60.50" routeLength="395.15" waitingTime="17.50" waitingCount="1" stopTime="0.00" timeLoss="30.05" rerouteNo="0" devices="tripinfo_WE_6" vType="cars" speedFactor="1.11" vaporized=""/>
    <tripinfo id="EW_0" depart="32.00" departLane="4_1_2" departPos="5.10" departSpeed="0.00" departDelay="0.00" arrival="93.00" arrivalLane="1_2_1" arrivalPos="186.40" arrivalSpeed="13.00" duration="61.00" routeLength="395.15" waitingTime="17.50" waitingCount="2" stopTime="0.00" timeLoss="30.55" rerouteNo="0" devices="tripinfo_EW_0" vType="cars" speedFactor="0.94" vaporized=""/>
    <tripinfo id="EW_1" depart="37.00" departLane="4_1_2" departPos="5.10" departSpeed="0.00" departDelay="0.00" arrival="93.00" arrivalLane="1_2_2" arrivalPos="186.40" arrivalSpeed="13.00" duration="56.00" routeLength="395.15" waitingTime="9.50" waitingCount="1" stopTime="0.00" timeLoss="25.55" rerouteNo="0" devices="tripinfo_EW_1" vType="cars" speedFactor="1.14" vaporized=""/>
    <tripinfo id="EW_2" depart="42.00" departLane="4_1_2" departPos="5.10" departSpeed="0.00" departDelay="0.00" arrival="94.50" arrivalLane="1_2_1" arrivalPos="186.40" arrivalSpeed="13.00" duration="52.50" routeLength="395.15" waitingTime="7.50" waitingCount="5" stopTime="0.00" timeLoss="22.09" rerouteNo="0" devices="tripinfo_EW_2" vType="cars" speedFactor="1.04" vaporized=""/>
    <tripinfo id="EW_3" depart="46.00" departLane="4_1_2" departPos="5.10" departSpeed="0.00" departDelay="0.00" arrival="94.50" arrivalLane="1_2_2" arrivalPos="186.40" arrivalSpeed="13.00" duration="48.50" routeLength="395.15" waitingTime="1.50" waitingCount="1" stopTime="0.00" timeLoss="18.09" rerouteNo="0" devices="tripinfo_EW_3" vType="cars" speedFactor="0.96" vaporized=""/>
    <tripinfo id="WE_7" depart="50.00" departLane="2_1_2" departPos="5.10" departSpeed="0.00" departDelay="0.00" arrival="94.50" arrivalLane="1_4_1" arrivalPos="186.40" arrivalSpeed="13.00" duration="44.50" routeLength="395.15" waitingTime="0.00" waitingCount="0" stopTime="0.00" timeLoss="14.09" rerouteNo="0" devices="tripinfo_WE_7" vType="cars" speedFactor="1.00" vaporized=""/>
    <tripinfo id="EW_4" depart="62.00" departLane="4_1_2" departPos="5.10" departSpeed="0.00" departDelay="0.00" arrival="98.00" arrivalLane="1_2_1" arrivalPos="186.40" arrivalSpeed="13.00" duration="36.00" routeLength="395.15" waitingTime="0.00" waitingCount="0" stopTime="0.00" timeLoss="5.35" rerouteNo="0" devices="tripinfo_EW_4" vType="cars" speedFactor="1.06" vaporized=""/>
    <tripinfo id="SN_21" depart="75.00" departLane="3_1_2" departPos="5.10" departSpeed="0.00" departDelay="0.00" arrival="112.00" arrivalLane="1_5_2" arrivalPos="186.40" arrivalSpeed="13.00" duration="37.00" routeLength="395.15" waitingTime="0.00" waitingCount="0" stopTime="0.00" timeLoss="6.38" rerouteNo="0" devices="tripinfo_SN_21" vType="cars" speedFactor="1.08" vaporized=""/>
    <tripinfo id="NW_17" depart="53.00" departLane="5_1_1" departPos="5.10" departSpeed="0.00" departDelay="0.00" arrival="113.00" arrivalLane="1_2_1" arrivalPos="186.40" arrivalSpeed="13.00" duration="60.00" routeLength="379.43" waitingTime="17.00" waitingCount="2" stopTime="0.00" timeLoss="30.16" rerouteNo="0" devices="tripinfo_NW_17" vType="cars" speedFactor="1.07" vaporized=""/>
    <tripinfo id="SN_18" depart="60.00" departLane="3_1_2" departPos="5.10" departSpeed="0.00" departDelay="0.00" arrival="113.00" arrivalLane="1_5_1" arrivalPos="186.40" arrivalSpeed="13.00" duration="53.00" routeLength="395.15" waitingTime="12.00" waitingCount="2" stopTime="0.00" timeLoss="22.55" rerouteNo="0" devices="tripinfo_SN_18" vType="cars" speedFactor="0.93" vaporized=""/>
    <tripinfo id="NS_19" depart="66.00" departLane="5_1_2" departPos="5.10" departSpeed="0.00" departDelay="0.00" arrival="113.00" arrivalLane="1_3_1" arrivalPos="186.40" arrivalSpeed="13.00" duration="47.00" routeLength="395.15" waitingTime="6.00" waitingCount="1" stopTime="0.00" timeLoss="16.55" rerouteNo="0" devices="tripinfo_NS_19" vType="cars" speedFactor="1.12" vaporized=""/>
    <tripinfo id="NW_20" depart="69.00" departLane="5_1_1" departPos="5.10" departSpeed="0.00" departDelay="0.00" arrival="116.50" arrivalLane="1_2_1" arrivalPos="186.40" arrivalSpeed="13.00" duration="47.50" routeLength="379.43" waitingTime="0.50" waitingCount="1" stopTime="0.00" timeLoss="17.76" rerouteNo="0" devices="tripinfo_NW_20" vType="cars" speedFactor="1.18" vaporized=""/>
    <tripinfo id="SN_23" depart="83.00" departLane="3_1_2" departPos="5.10" departSpeed="0.00" departDelay="0.00" arrival="118.50" arrivalLane="1_5_1" arrivalPos="186.40" arrivalSpeed="13.00" duration="35.50" routeLength="395.15" waitingTime="0.00" waitingCount="0" stopTime="0.00" timeLoss="4.90" rerouteNo="0" devices="tripinfo_SN_23" vType="cars" speedFactor="0.99" vaporized=""/>
    <tripinfo id="NS_24" depart="84.00" departLane="5_1_2" departPos="5.10" departSpeed="0.00" departDelay="0.00" arrival="119.00" arrivalLane="1_3_1" arrivalPos="186.40" arrivalSpeed="13.00" duration="35.00" routeLength="395.15" waitingTime="0.00" waitingCount="0" stopTime="0.00" timeLoss="4.36" rerouteNo="0" devices="tripinfo_NS_24" vType="cars" speedFactor="1.05" vaporized=""/>
    <tripinfo id="WE_8" depart="78.00" departLane="2_1_2" departPos="5.10" departSpeed="0.00" departDelay="0.00" arrival="133.00" arrivalLane="1_4_1" arrivalPos="186.40" arrivalSpeed="13.00" duration="55.00" routeLength="395.15" waitingTime="10.00" waitingCount="2" stopTime="0.00" timeLoss="24.55" rerouteNo="0" devices="tripinfo_WE_8" vType="cars" speedFactor="0.91" vaporized=""/>
    <tripinfo id="WS_22" depart="79.00" departLane="2_1_1" departPos="5.10" departSpeed="0.00" departDelay="0.00" arrival="133.00" arrivalLane="1_3_1" arrivalPos="186.40" arrivalSpeed="13.00" duration="54.00" routeLength="379.43" waitingTime="11.00" waitingCount="2" stopTime="0.00" timeLoss="24.25" rerouteNo="0" devices="tripinfo_WS_22" vType="cars" speedFactor="1.14" vaporized=""/>
    <tripinfo id="EW_5" depart="82.00" departLane="4_1_2" departPos="5.10" departSpeed="0.00" departDelay="0.00" arrival="133.00" arrivalLane="1_2_1" arrivalPos="186.40" arrivalSpeed="13.00" duration="51.00" routeLength="395.15" waitingTime="10.00" waitingCount="2" stopTime="0.00" timeLoss="20.55" rerouteNo="0" devices="tripinfo_EW_5" vType="cars" speedFactor="0.88" vaporized=""/>
    <tripinfo id="EW_6" depart="91.00" departLane="4_1_2" departPos="5.10" departSpeed="0.00" departDelay="0.00" arrival="133.50" arrivalLane="1_2_2" arrivalPos="186.40" arrivalSpeed="13.00" duration="42.50" routeLength="395.15" waitingTime="0.00" waitingCount="0" stopTime="0.00" timeLoss="11.99" rerouteNo="0" devices="tripinfo_EW_6" vType="cars" speedFactor="1.00" vaporized=""/>
    <tripinfo id="WE_9" depart="83.00" departLane="2_1_2" departPos="5.10" departSpeed="0.00" departDelay="0.00" arrival="134.50" arrivalLane="1_4_2" arrivalPos="186.40" arrivalSpeed="13.00" duration="51.50" routeLength="395.15" waitingTime="7.50" waitingCount="6" stopTime="0.00" timeLoss="20.89" rerouteNo="0" devices="tripinfo_WE_9" vType="cars" speedFactor="1.08" vaporized=""/>
    <tripinfo id="WE_10" depart="85.50" departLane="2_1_2" departPos="5.10" departSpeed="0.00" departDelay="1.50" arrival="135.50" arrivalLane="1_4_1" arrivalPos="186.40" arrivalSpeed="13.00" duration="50.00" routeLength="395.15" waitingTime="2.50" waitingCount="4" stopTime="0.00" timeLoss="19.34" rerouteNo="0" devices="tripinfo_WE_10" vType="cars" speedFactor="1.13" vaporized=""/>
    <tripinfo id="EW_7" depart="96.00" departLane="4_1_2" departPos="5.10" departSpeed="0.00" departDelay="0.00" arrival="135.50" arrivalLane="1_2_1" arrivalPos="186.40" arrivalSpeed="13.00" duration="39.50" routeLength="395.15" waitingTime="0.00" waitingCount="0" stopTime="0.00" timeLoss="8.63" rerouteNo="0" devices="tripinfo_EW_7" vType="cars" speedFactor="0.98" vaporized=""/>
    <tripinfo id="EN_26" depart="99.00" departLane="4_1_1" departPos="5.10" departSpeed="0.00" departDelay="0.00" arrival="135.50" arrivalLane="1_5_1" arrivalPos="186.40" arrivalSpeed="13.00" duration="36.50" routeLength="379.42" waitingTime="0.00" waitingCount="0" stopTime="0.00" timeLoss="6.27" rerouteNo="0" devices="tripinfo_EN_26" vType="cars" speedFactor="0.90" vaporized=""/>
    <tripinfo id="WE_12" depart="98.00" departLane="2_1_2" departPos="5.10" departSpeed="0.00" departDelay="0.00" arrival="137.00" arrivalLane="1_4_1" arrivalPos="186.40" arrivalSpeed="13.00" duration="39.00" routeLength="395.15" waitingTime="0.00" waitingCount="0" stopTime="0.00" timeLoss="8.37" rerouteNo="0" devices="tripinfo_WE_12" vType="cars" speedFactor="0.94" vaporized=""/>
    <tripinfo id="EW_8" depart="98.50" departLane="4_1_2" departPos="5.10" departSpeed="0.00" departDelay="0.50" arrival="137.00" arrivalLane="1_2_1" arrivalPos="186.40" arrivalSpeed="13.00" duration="38.50" routeLength="395.15" waitingTime="0.00" waitingCount="0" stopTime="0.00" timeLoss="7.95" rerouteNo="0" devices="tripinfo_EW_8" vType="cars" speedFactor="1.09" vaporized=""/>
    <tripinfo id="WE_11" depart="88.50" departLane="2_1_2" departPos="5.10" departSpeed="0.00" departDelay="3.50" arrival="143.00" arrivalLane="1_4_2" arrivalPos="186.40" arrivalSpeed="9.19" duration="54.50" routeLength="395.15" waitingTime="1.50" waitingCount="3" stopTime="0.00" timeLoss="23.79" rerouteNo="0" devices="tripinfo_WE_11" vType="cars" speedFactor="0.91" vaporized=""/>
    <tripinfo id="SE_27" depart="101.00" departLane="3_1_1" departPos="5.10" departSpeed="0.00" departDelay="0.00" arrival="153.00" arrivalLane="1_4_1" arrivalPos="186.40" arrivalSpeed="13.00" duration="52.00" routeLength="379.42" waitingTime="11.00" waitingCount="1" stopTime="0.00" timeLoss="21.45" rerouteNo="0" devices="tripinfo_SE_27" vType="cars" speedFactor="0.89" vaporized=""/>
    <tripinfo id="EW_9" depart="108.00" departLane="4_1_2" departPos="5.10" departSpeed="0.00" departDelay="0.00" arrival="153.00" arrivalLane="1_2_1" arrivalPos="186.40" arrivalSpeed="13.00" duration="45.00" routeLength="395.15" waitingTime="2.00" waitingCount="1" stopTime="0.00" timeLoss="14.55" rerouteNo="0" devices="tripinfo_EW_9" vType="cars" speedFactor="0.96" vaporized=""/>
    <tripinfo id="EW_10" depart="112.00" departLane="4_1_2" departPos="5.10" departSpeed="0.00" departDelay="0.00" arrival="153.00" arrivalLane="1_2_2" arrivalPos="186.40" arrivalSpeed="13.00" duration="41.00" routeLength="395.15" waitingTime="0.00" waitingCount="0" stopTime="0.00" timeLoss="10.49" rerouteNo="0" devices="tripinfo_EW_10" vType="cars" speedFactor="1.03" vaporized=""/>
    <tripinfo id="ES_4" depart="14.00" departLane="4_1_3" departPos="5.10" departSpeed="0.00" departDelay="0.00" arrival="154.00" arrivalLane="1_3_2" arrivalPos="186.40" arrivalSpeed="13.00" duration="140.00" routeLength="392.22" waitingTime="98.00" waitingCount="1" stopTime="0.00" timeLoss="108.97" rerouteNo="0" devices="tripinfo_ES_4" vType="cars" speedFactor="1.03" vaporized=""/>
    <tripinfo id="EW_11" depart="114.50" departLane="4_1_2" departPos="5.10" departSpeed="0.00" departDelay="1.50" arrival="154.50" arrivalLane="1_2_1" arrivalPos="186.40" arrivalSpeed="13.00" duration="40.00" routeLength="395.15" waitingTime="0.00" waitingCount="0" stopTime="0.00" timeLoss="9.52" rerouteNo="0" devices="tripinfo_EW_11" vType="cars" speedFactor="1.08" vaporized=""/>
    <tripinfo id="EN_31" depart="117.00" departLane="4_1_1" departPos="5.10" departSpeed="0.00" departDelay="0.00" arrival="155.00" arrivalLane="1_5_1" arrivalPos="186.40" arrivalSpeed="13.00" duration="38.00" routeLength="379.42" waitingTime="0.00" waitingCount="0" stopTime="0.00" timeLoss="7.83" rerouteNo="0" devices="tripinfo_EN_31" vType="cars" speedFactor="1.06" vaporized=""/>
    <tripinfo id="EW_12" depart="119.00" departLane="4_1_2" departPos="5.10" departSpeed="0.00" departDelay="0.00" arrival="157.00" arrivalLane="1_2_2" arrivalPos="186.40" arrivalSpeed="13.00" duration="38.00" routeLength="395.15" waitingTime="0.00" waitingCount="0" stopTime="0.00" timeLoss="7.17" rerouteNo="0" devices="tripinfo_EW_12" vType="cars" speedFactor="1.03" vaporized=""/>
    <tripinfo id="NS_25" depart="92.00" departLane="5_1_2" departPos="5.10" departSpeed="0.00" departDelay="0.00" arrival="168.00" arrivalLane="1_3_1" arrivalPos="186.40" arrivalSpeed="13.00" duration="76.00" routeLength="395.15" waitingTime="33.00" waitingCount="1" stopTime="0.00" timeLoss="45.55" rerouteNo="0" devices="tripinfo_NS_25" vType="cars" speedFactor="1.03" vaporized=""/>
    <tripinfo id="SN_28" depart="105.00" departLane="3_1_2" departPos="5.10" departSpeed="0.00" departDelay="0.00" arrival="168.00" arrivalLane="1_5_2" arrivalPos="186.40" arrivalSpeed="13.00" duration="63.00" routeLength="395.15" waitingTime="22.00" waitingCount="1" stopTime="0.00" timeLoss="32.55" rerouteNo="0" devices="tripinfo_SN_28" vType="cars" speedFactor="1.14" vaporized=""/>
    <tripinfo id="SN_29" depart="109.00" departLane="3_1_2" departPos="5.10" departSpeed="0.00" departDelay="0.00" arrival="168.00" arrivalLane="1_5_1" arrivalPos="186.40" arrivalSpeed="13.00" duration="59.00" routeLength="395.15" waitingTime="11.00" waitingCount="2" stopTime="0.00" timeLoss="28.55" rerouteNo="0" devices="tripinfo_SN_29" vType="cars" speedFactor="0.92" vaporized=""/>
    <tripinfo id="NS_30" depart="111.00" departLane="5_1_2" departPos="5.10" departSpeed="0.00" departDelay="0.00" arrival="168.00" arrivalLane="1_3_2" arrivalPos="186.40" arrivalSpeed="13.00" duration="57.00" routeLength="395.15" waitingTime="17.00" waitingCount="1" stopTime="0.00" timeLoss="26.55" rerouteNo="0" devices="tripinfo_NS_30" vType="cars" speedFactor="1.09" vaporized=""/>
    <tripinfo id="SE_33" depart="122.00" departLane="3_1_1" departPos="5.10" departSpeed="0.00" departDelay="0.00" arrival="169.00" arrivalLane="1_4_1" arrivalPos="186.40" arrivalSpeed="13.00" duration="47.00" routeLength="379.42" waitingTime="1.50" waitingCount="3" stopTime="0.00" timeLoss="16.87" rerouteNo="0" devices="tripinfo_SE_33" vType="cars" speedFactor="1.08" vaporized=""/>
    <tripinfo id="NS_32" depart="118.00" departLane="5_1_2" departPos="5.10" departSpeed="0.00" departDelay="0.00" arrival="169.50" arrivalLane="1_3_1" arrivalPos="186.40" arrivalSpeed="13.00" duration="51.50" routeLength="395.15" waitingTime="6.50" waitingCount="4" stopTime="0.00" timeLoss="21.09" rerouteNo="0" devices="tripinfo_NS_32" vType="cars" speedFactor="1.10" vaporized=""/>
    <tripinfo id="SN_35" depart="124.00" departLane="3_1_2" departPos="5.10" departSpeed="0.00" departDelay="0.00" arrival="169.50" arrivalLane="1_5_2" arrivalPos="186.40" arrivalSpeed="13.00" duration="45.50" routeLength="395.15" waitingTime="1.00" waitingCount="2" stopTime="0.00" timeLoss="15.09" rerouteNo="0" devices="tripinfo_SN_35" vType="cars" speedFactor="1.08" vaporized=""/>
    <tripinfo id="SN_39" depart="134.00" departLane="3_1_2" departPos="5.10" departSpeed="0.00" departDelay="0.00" arrival="171.50" arrivalLane="1_5_2" arrivalPos="186.40" arrivalSpeed="13.00" duration="37.50" routeLength="395.15" waitingTime="0.00" waitingCount="0" stopTime="0.00" timeLoss="6.98" rerouteNo="0" devices="tripinfo_SN_39" vType="cars" speedFactor="0.93" vaporized=""/>
    <personinfo id="person_NS_w.0" depart="13.50" type="DEFAULT_PEDTYPE" speedFactor="1.16" duration="162.00" waitingTime="0.00" timeLoss="24.46" traveltime="162.00">
        <walk depart="13.50" departPos="100.00" arrival="175.50" arrivalPos="93.20" duration="162.00" routeLength="221.25" timeLoss="24.46" maxSpeed="1.61"/>
    </personinfo>
    <tripinfo id="NS_36" depart="128.00" departLane="5_1_2" departPos="5.10" departSpeed="0.00" departDelay="0.00" arrival="177.00" arrivalLane="1_3_1" arrivalPos="186.40" arrivalSpeed="9.59" duration="49.00" routeLength="395.15" waitingTime="0.00" waitingCount="0" stopTime="0.00" timeLoss="18.28" rerouteNo="0" devices="tripinfo_NS_36" vType="cars" speedFactor="0.89" vaporized=""/>
    <tripinfo id="SN_37" depart="128.00" departLane="3_1_2" departPos="5.10" departSpeed="0.00" departDelay="0.00" arrival="178.50" arrivalLane="1_5_1" arrivalPos="186.40" arrivalSpeed="9.05" duration="50.50" routeLength="395.15" waitingTime="0.00" waitingCount="0" stopTime="0.00" timeLoss="19.77" rerouteNo="0" devices="tripinfo_SN_37" vType="cars" speedFactor="0.97" vaporized=""/>
    <personinfo id="person_SW_diag.0" depart="19.50" type="DEFAULT_PEDTYPE" speedFactor="1.12" duration="160.50" waitingTime="0.00" timeLoss="17.02" traveltime="160.50">
        <walk depart="19.50" departPos="100.00" arrival="180.00" arrivalPos="93.20" duration="160.50" routeLength="223.30" timeLoss="17.02" maxSpeed="1.56"/>
    </personinfo>
    <personinfo id="person_SN_e.0" depart="38.50" type="DEFAULT_PEDTYPE" speedFactor="1.19" duration="141.50" waitingTime="0.00" timeLoss="7.46" traveltime="141.50">
        <walk depart="38.50" departPos="100.00" arrival="180.00" arrivalPos="93.20" duration="141.50" routeLength="221.24" timeLoss="7.46" maxSpeed="1.65"/>
    </personinfo>
    <tripinfo id="WE_14" depart="124.00" departLane="2_1_2" departPos="5.10" departSpeed="0.00" departDelay="1.00" arrival="183.00" arrivalLane="1_4_2" arrivalPos="186.40" arrivalSpeed="13.00" duration="59.00" routeLength="395.15" waitingTime="16.50" waitingCount="1" stopTime="0.00" timeLoss="28.55" rerouteNo="0" devices="tripinfo_WE_14" vType="cars" speedFactor="0.94" vaporized=""/>
    <tripinfo id="WE_13" depart="121.00" departLane="2_1_2" departPos="5.10" departSpeed="0.00" departDelay="0.00" arrival="183.50" arrivalLane="1_4_1" arrivalPos="186.40" arrivalSpeed="13.00" duration="62.50" routeLength="395.15" waitingTime="21.00" waitingCount="2" stopTime="0.00" timeLoss="32.05" rerouteNo="0" devices="tripinfo_WE_13" vType="cars" speedFactor="1.03" vaporized=""/>
    <tripinfo id="WN_34" depart="123.00" departLane="2_1_3" departPos="5.10" departSpeed="0.00" departDelay="0.00" arrival="184.00" arrivalLane="1_5_2" arrivalPos="186.40" arrivalSpeed="13.00" duration="61.00" routeLength="392.22" waitingTime="19.00" waitingCount="1" stopTime="0.00" timeLoss="29.71" rerouteNo="0" devices="tripinfo_WN_34" vType="cars" speedFactor="0.92" vaporized=""/>
    <tripinfo id="WE_15" depart="132.00" departLane="2_1_2" departPos="5.10" departSpeed="0.00" departDelay="0.00" arrival="184.50" arrivalLane="1_4_1" arrivalPos="186.40" arrivalSpeed="13.00" duration="52.50" routeLength="395.15" waitingTime="7.00" waitingCount="6" stopTime="0.00" timeLoss="22.09" rerouteNo="0" devices="tripinfo_WE_15" vType="cars" speedFactor="0.97" vaporized=""/>
    <tripinfo id="NW_42" depart="145.00" departLane="5_1_1" departPos="5.10" departSpeed="0.00" departDelay="0.00" arrival="184.50" arrivalLane="1_2_1" arrivalPos="186.40" arrivalSpeed="13.00" duration="39.50" routeLength="379.43" waitingTime="0.00" waitingCount="0" stopTime="0.00" timeLoss="9.43" rerouteNo="0" devices="tripinfo_NW_42" vType="cars" speedFactor="1.03" vaporized=""/>
    <tripinfo id="WS_38" depart="133.00" departLane="2_1_1" departPos="5.10" departSpeed="0.00" departDelay="0.00" arrival="185.00" arrivalLane="1_3_1" arrivalPos="186.40" arrivalSpeed="13.00" duration="52.00" routeLength="379.43" waitingTime="6.50" waitingCount="7" stopTime="0.00" timeLoss="21.43" rerouteNo="0" devices="tripinfo_WS_38" vType="cars" speedFactor="0.90" vaporized=""/>
    <personinfo id="person_NE_diag.0" depart="6.00" type="DEFAULT_PEDTYPE" speedFactor="0.98" duration="183.50" waitingTime="0.00" timeLoss="19.03" traveltime="183.50">
        <walk depart="6.00" departPos="100.00" arrival="189.50" arrivalPos="93.20" duration="183.50" routeLength="223.30" timeLoss="19.03" maxSpeed="1.36"/>
    </personinfo>
    <tripinfo id="WE_17" depart="138.50" departLane="2_1_2" departPos="5.10" departSpeed="0.00" departDelay="1.50" arrival="189.50" arrivalLane="1_4_1" arrivalPos="186.40" arrivalSpeed="13.00" duration="51.00" routeLength="395.15" waitingTime="1.50" waitingCount="3" stopTime="0.00" timeLoss="20.50" rerouteNo="0" devices="tripinfo_WE_17" vType="cars" speedFactor="1.00" vaporized=""/>