<?xml version="1.0" encoding="UTF-8"?>

<!-- generated on 2025-06-30 15:28:21 by Eclipse SUMO GUI Version 1.22.0
<sumoConfiguration xmlns:xsi="http://www.w3.org/2001/XMLSchema-instance" xsi:noNamespaceSchemaLocation="http://sumo.dlr.de/xsd/sumoConfiguration.xsd">

    <input>
        <net-file value="/home/naderian/Desktop/Shakiba/MMSVCC/environment/network_model/single_intersection_Concurrent_(delayed_turn).net.xml"/>
        <route-files value="/home/naderian/Desktop/Shakiba/MMSVCC/environment/network_model/single_intersection.rou.xml"/>
        <additional-files value="/home/naderian/Desktop/Shakiba/MMSVCC/environment/network_model/single_intersection_Concurrent_(delayed_turn).add.xml"/>
    </input>

    <output>
        <queue-output value="/home/naderian/Desktop/Shakiba/MMSVCC/environment/simulation_data/single_intersection/queues_multi_scale_symmetric_pene_100.xml"/>
        <tripinfo-output value="/home/naderian/Desktop/Shakiba/MMSVCC/environment/simulation_data/single_intersection/tripinfo_multi_scale_symmetric_pene_100.xml"/>
    </output>

    <time>
        <begin value="0"/>
        <step-length value="0.5"/>
    </time>

    <processing>
        <waiting-time-memory value="1000"/>
    </processing>

    <report>
        <verbose value="true"/>
        <no-step-log value="true"/>
    </report>

    <ssm_device>
        <device.ssm.file value="/home/naderian/Desktop/Shakiba/MMSVCC/environment/simulation_data/single_intersection/SSMinfo_multi_scale_pene_100.xml"/>
    </ssm_device>

    <traci_server>
        <remote-port value="60451"/>
    </traci_server>

    <gui_only>
        <start value="true"/>
    </gui_only>

</sumoConfiguration>
-->

<tripinfos xmlns:xsi="http://www.w3.org/2001/XMLSchema-instance" xsi:noNamespaceSchemaLocation="http://sumo.dlr.de/xsd/tripinfo_file.xsd">
    <tripinfo id="SN_0" depart="0.00" departLane="3_1_2" departPos="5.10" departSpeed="0.00" departDelay="0.00" arrival="35.00" arrivalLane="1_5_2" arrivalPos="186.40" arrivalSpeed="13.00" duration="35.00" routeLength="395.15" waitingTime="0.00" waitingCount="0" stopTime="0.00" timeLoss="4.21" rerouteNo="0" devices="tripinfo_SN_0 ssm_SN_0" vType="cars" speedFactor="1.02" vaporized=""/>
    <tripinfo id="NS_1" depart="1.00" departLane="5_1_2" departPos="5.10" departSpeed="0.00" departDelay="0.00" arrival="37.00" arrivalLane="1_3_2" arrivalPos="186.40" arrivalSpeed="13.00" duration="36.00" routeLength="395.15" waitingTime="0.00" waitingCount="0" stopTime="0.00" timeLoss="5.23" rerouteNo="0" devices="tripinfo_NS_1 ssm_NS_1" vType="cars" speedFactor="1.15" vaporized=""/>
    <tripinfo id="SE_4" depart="9.00" departLane="3_1_1" departPos="5.10" departSpeed="0.00" departDelay="0.00" arrival="43.50" arrivalLane="1_4_1" arrivalPos="186.40" arrivalSpeed="13.00" duration="34.50" routeLength="379.42" waitingTime="0.00" waitingCount="0" stopTime="0.00" timeLoss="4.83" rerouteNo="0" devices="tripinfo_SE_4 ssm_SE_4" vType="cars" speedFactor="1.12" vaporized=""/>
    <tripinfo id="SN_2" depart="5.00" departLane="3_1_2" departPos="5.10" departSpeed="0.00" departDelay="0.00" arrival="44.00" arrivalLane="1_5_2" arrivalPos="186.40" arrivalSpeed="11.00" duration="39.00" routeLength="395.15" waitingTime="0.00" waitingCount="0" stopTime="0.00" timeLoss="8.19" rerouteNo="0" devices="tripinfo_SN_2 ssm_SN_2" vType="cars" speedFactor="1.03" vaporized=""/>
    <tripinfo id="NS_5" depart="11.00" departLane="5_1_2" departPos="5.10" departSpeed="0.00" departDelay="0.00" arrival="47.00" arrivalLane="1_3_2" arrivalPos="186.40" arrivalSpeed="13.00" duration="36.00" routeLength="395.15" waitingTime="0.00" waitingCount="0" stopTime="0.00" timeLoss="5.27" rerouteNo="0" devices="tripinfo_NS_5 ssm_NS_5" vType="cars" speedFactor="1.01" vaporized=""/>
    <tripinfo id="NS_8" depart="17.00" departLane="5_1_2" departPos="5.10" departSpeed="0.00" departDelay="0.00" arrival="52.50" arrivalLane="1_3_2" arrivalPos="186.40" arrivalSpeed="13.00" duration="35.50" routeLength="395.15" waitingTime="0.00" waitingCount="0" stopTime="0.00" timeLoss="4.95" rerouteNo="0" devices="tripinfo_NS_8 ssm_NS_8" vType="cars" speedFactor="1.04" vaporized=""/>
    <tripinfo id="SN_9" depart="18.00" departLane="3_1_2" departPos="5.10" departSpeed="0.00" departDelay="0.00" arrival="53.50" arrivalLane="1_5_2" arrivalPos="186.40" arrivalSpeed="13.00" duration="35.50" routeLength="395.15" waitingTime="0.00" waitingCount="0" stopTime="0.00" timeLoss="4.65" rerouteNo="0" devices="tripinfo_SN_9 ssm_SN_9" vType="cars" speedFactor="1.23" vaporized=""/>
    <tripinfo id="NS_11" depart="20.00" departLane="5_1_2" departPos="5.10" departSpeed="0.00" departDelay="0.00" arrival="55.50" arrivalLane="1_3_2" arrivalPos="186.40" arrivalSpeed="13.00" duration="35.50" routeLength="395.15" waitingTime="0.00" waitingCount="0" stopTime="0.00" timeLoss="4.86" rerouteNo="0" devices="tripinfo_NS_11 ssm_NS_11" vType="cars" speedFactor="1.12" vaporized=""/>
    <tripinfo id="WE_0" depart="1.00" departLane="2_1_2" departPos="5.10" departSpeed="0.00" departDelay="0.00" arrival="68.00" arrivalLane="1_4_2" arrivalPos="186.40" arrivalSpeed="13.00" duration="67.00" routeLength="395.15" waitingTime="28.00" waitingCount="1" stopTime="0.00" timeLoss="36.55" rerouteNo="0" devices="tripinfo_WE_0 ssm_WE_0" vType="cars" speedFactor="1.06" vaporized=""/>
    <tripinfo id="EW_0" depart="22.00" departLane="4_1_2" departPos="5.10" departSpeed="0.00" departDelay="0.00" arrival="68.00" arrivalLane="1_2_2" arrivalPos="186.40" arrivalSpeed="13.00" duration="46.00" routeLength="395.15" waitingTime="6.00" waitingCount="2" stopTime="0.00" timeLoss="15.55" rerouteNo="0" devices="tripinfo_EW_0 ssm_EW_0" vType="cars" speedFactor="1.00" vaporized=""/>
    <tripinfo id="WE_1" depart="12.00" departLane="2_1_2" departPos="5.10" departSpeed="0.00" departDelay="0.00" arrival="69.50" arrivalLane="1_4_2" arrivalPos="186.40" arrivalSpeed="13.00" duration="57.50" routeLength="395.15" waitingTime="12.00" waitingCount="3" stopTime="0.00" timeLoss="27.09" rerouteNo="0" devices="tripinfo_WE_1 ssm_WE_1" vType="cars" speedFactor="1.03" vaporized=""/>
    <tripinfo id="WE_2" depart="22.00" departLane="2_1_2" departPos="5.10" departSpeed="0.00" departDelay="0.00" arrival="71.50" arrivalLane="1_4_2" arrivalPos="186.40" arrivalSpeed="13.00" duration="49.50" routeLength="395.15" waitingTime="2.50" waitingCount="3" stopTime="0.00" timeLoss="18.63" rerouteNo="0" devices="tripinfo_WE_2 ssm_WE_2" vType="cars" speedFactor="1.02" vaporized=""/>
    <tripinfo id="WS_3" depart="7.00" departLane="2_1_1" departPos="5.10" departSpeed="0.00" departDelay="0.00" arrival="72.50" arrivalLane="1_3_1" arrivalPos="186.40" arrivalSpeed="13.00" duration="65.50" routeLength="379.43" waitingTime="26.00" waitingCount="2" stopTime="0.00" timeLoss="35.23" rerouteNo="0" devices="tripinfo_WS_3 ssm_WS_3" vType="cars" speedFactor="0.82" vaporized=""/>
    <tripinfo id="EN_10" depart="20.00" departLane="4_1_1" departPos="5.10" departSpeed="0.00" departDelay="0.00" arrival="72.50" arrivalLane="1_5_1" arrivalPos="186.40" arrivalSpeed="13.00" duration="52.50" routeLength="379.42" waitingTime="12.50" waitingCount="1" stopTime="0.00" timeLoss="22.28" rerouteNo="0" devices="tripinfo_EN_10 ssm_EN_10" vType="cars" speedFactor="1.01" vaporized=""/>
    <tripinfo id="WE_3" depart="27.00" departLane="2_1_2" departPos="5.10" departSpeed="0.00" departDelay="0.00" arrival="73.00" arrivalLane="1_4_2" arrivalPos="186.40" arrivalSpeed="13.00" duration="46.00" routeLength="395.15" waitingTime="1.00" waitingCount="2" stopTime="0.00" timeLoss="15.30" rerouteNo="0" devices="tripinfo_WE_3 ssm_WE_3" vType="cars" speedFactor="1.16" vaporized=""/>
    <tripinfo id="WS_6" depart="14.00" departLane="2_1_1" departPos="5.10" departSpeed="0.00" departDelay="0.00" arrival="74.50" arrivalLane="1_3_1" arrivalPos="186.40" arrivalSpeed="13.00" duration="60.50" routeLength="379.43" waitingTime="16.00" waitingCount="3" stopTime="0.00" timeLoss="30.24" rerouteNo="0" devices="tripinfo_WS_6 ssm_WS_6" vType="cars" speedFactor="1.07" vaporized=""/>
    <tripinfo id="SN_12" depart="25.00" departLane="3_1_2" departPos="5.10" departSpeed="0.00" departDelay="0.00" arrival="88.00" arrivalLane="1_5_2" arrivalPos="186.40" arrivalSpeed="13.00" duration="63.00" routeLength="395.15" waitingTime="16.00" waitingCount="2" stopTime="0.00" timeLoss="32.55" rerouteNo="0" devices="tripinfo_SN_12 ssm_SN_12" vType="cars" speedFactor="0.95" vaporized=""/>
    <tripinfo id="NS_13" depart="26.00" departLane="5_1_2" departPos="5.10" departSpeed="0.00" departDelay="0.00" arrival="88.00" arrivalLane="1_3_2" arrivalPos="186.40" arrivalSpeed="13.00" duration="62.00" routeLength="395.15" waitingTime="17.50" waitingCount="2" stopTime="0.00" timeLoss="31.55" rerouteNo="0" devices="tripinfo_NS_13 ssm_NS_13" vType="cars" speedFactor="1.11" vaporized=""/>
    <tripinfo id="NS_14" depart="29.00" departLane="5_1_2" departPos="5.10" departSpeed="0.00" departDelay="2.00" arrival="89.50" arrivalLane="1_3_2" arrivalPos="186.40" arrivalSpeed="13.00" duration="60.50" routeLength="395.15" waitingTime="13.00" waitingCount="5" stopTime="0.00" timeLoss="30.09" rerouteNo="0" devices="tripinfo_NS_14 ssm_NS_14" vType="cars" speedFactor="0.94" vaporized=""/>
    <tripinfo id="SN_15" depart="29.00" departLane="3_1_2" departPos="5.10" departSpeed="0.00" departDelay="0.00" arrival="89.50" arrivalLane="1_5_2" arrivalPos="186.40" arrivalSpeed="13.00" duration="60.50" routeLength="395.15" waitingTime="12.00" waitingCount="3" stopTime="0.00" timeLoss="30.09" rerouteNo="0" devices="tripinfo_SN_15 ssm_SN_15" vType="cars" speedFactor="1.13" vaporized=""/>
    <tripinfo id="NS_16" depart="31.50" departLane="5_1_2" departPos="5.10" departSpeed="0.00" departDelay="1.50" arrival="91.50" arrivalLane="1_3_2" arrivalPos="186.40" arrivalSpeed="13.00" duration="60.00" routeLength="395.15" waitingTime="10.50" waitingCount="4" stopTime="0.00" timeLoss="29.13" rerouteNo="0" devices="tripinfo_NS_16 ssm_NS_16" vType="cars" speedFactor="0.73" vaporized=""/>
    <tripinfo id="SN_17" depart="33.00" departLane="3_1_2" departPos="5.10" departSpeed="0.00" departDelay="0.00" arrival="91.50" arrivalLane="1_5_2" arrivalPos="186.40" arrivalSpeed="13.00" duration="58.50" routeLength="395.15" waitingTime="10.00" waitingCount="5" stopTime="0.00" timeLoss="27.63" rerouteNo="0" devices="tripinfo_SN_17 ssm_SN_17" vType="cars" speedFactor="1.14" vaporized=""/>
    <tripinfo id="NW_21" depart="53.00" departLane="5_1_1" departPos="5.10" departSpeed="0.00" departDelay="0.00" arrival="91.50" arrivalLane="1_2_1" arrivalPos="186.40" arrivalSpeed="13.00" duration="38.50" routeLength="379.43" waitingTime="0.00" waitingCount="0" stopTime="0.00" timeLoss="8.34" rerouteNo="0" devices="tripinfo_NW_21 ssm_NW_21" vType="cars" speedFactor="1.07" vaporized=""/>
    <tripinfo id="SE_19" depart="39.00" departLane="3_1_1" departPos="5.10" departSpeed="0.00" departDelay="0.00" arrival="92.50" arrivalLane="1_4_1" arrivalPos="186.40" arrivalSpeed="13.00" duration="53.50" routeLength="379.42" waitingTime="15.50" waitingCount="1" stopTime="0.00" timeLoss="23.28" rerouteNo="0" devices="tripinfo_SE_19 ssm_SE_19" vType="cars" speedFactor="1.00" vaporized=""/>
    <tripinfo id="SN_18" depart="36.00" departLane="3_1_2" departPos="5.10" departSpeed="0.00" departDelay="0.00" arrival="93.00" arrivalLane="1_5_2" arrivalPos="186.40" arrivalSpeed="13.00" duration="57.00" routeLength="395.15" waitingTime="7.50" waitingCount="6" stopTime="0.00" timeLoss="26.30" rerouteNo="0" devices="tripinfo_SN_18 ssm_SN_18" vType="cars" speedFactor="0.89" vaporized=""/>
    <tripinfo id="SN_20" depart="40.00" departLane="3_1_2" departPos="5.10" departSpeed="0.00" departDelay="0.00" arrival="95.00" arrivalLane="1_5_2" arrivalPos="186.40" arrivalSpeed="13.00" duration="55.00" routeLength="395.15" waitingTime="5.00" waitingCount="7" stopTime="0.00" timeLoss="24.19" rerouteNo="0" devices="tripinfo_SN_20 ssm_SN_20" vType="cars" speedFactor="0.97" vaporized=""/>
    <tripinfo id="EW_1" depart="42.00" departLane="4_1_2" departPos="5.10" departSpeed="0.00" departDelay="0.00" arrival="108.00" arrivalLane="1_2_2" arrivalPos="186.40" arrivalSpeed="13.00" duration="66.00" routeLength="395.15" waitingTime="23.50" waitingCount="1" stopTime="0.00" timeLoss="35.55" rerouteNo="0" devices="tripinfo_EW_1 ssm_EW_1" vType="cars" speedFactor="1.04" vaporized=""/>
    <tripinfo id="WE_4" depart="50.00" departLane="2_1_2" departPos="5.10" departSpeed="0.00" departDelay="0.00" arrival="108.00" arrivalLane="1_4_2" arrivalPos="186.40" arrivalSpeed="13.00" duration="58.00" routeLength="395.15" waitingTime="14.00" waitingCount="1" stopTime="0.00" timeLoss="27.55" rerouteNo="0" devices="tripinfo_WE_4 ssm_WE_4" vType="cars" speedFactor="1.00" vaporized=""/>
    <tripinfo id="EW_2" depart="46.00" departLane="4_1_2" departPos="5.10" departSpeed="0.00" departDelay="0.00" arrival="109.50" arrivalLane="1_2_2" arrivalPos="186.40" arrivalSpeed="13.00" duration="63.50" routeLength="395.15" waitingTime="15.50" waitingCount="4" stopTime="0.00" timeLoss="33.09" rerouteNo="0" devices="tripinfo_EW_2 ssm_EW_2" vType="cars" speedFactor="0.96" vaporized=""/>
    <tripinfo id="EW_3" depart="59.00" departLane="4_1_2" departPos="5.10" departSpeed="0.00" departDelay="0.00" arrival="111.50" arrivalLane="1_2_2" arrivalPos="186.40" arrivalSpeed="13.00" duration="52.50" routeLength="395.15" waitingTime="6.50" waitingCount="4" stopTime="0.00" timeLoss="21.63" rerouteNo="0" devices="tripinfo_EW_3 ssm_EW_3" vType="cars" speedFactor="0.93" vaporized=""/>
    <tripinfo id="WE_5" depart="75.00" departLane="2_1_2" departPos="5.10" departSpeed="0.00" departDelay="0.00" arrival="112.00" arrivalLane="1_4_2" arrivalPos="186.40" arrivalSpeed="13.00" duration="37.00" routeLength="395.15" waitingTime="0.00" waitingCount="0" stopTime="0.00" timeLoss="6.25" rerouteNo="0" devices="tripinfo_WE_5 ssm_WE_5" vType="cars" speedFactor="1.14" vaporized=""/>
    <tripinfo id="EW_4" depart="62.00" departLane="4_1_2" departPos="5.10" departSpeed="0.00" departDelay="0.00" arrival="113.00" arrivalLane="1_2_2" arrivalPos="186.40" arrivalSpeed="13.00" duration="51.00" routeLength="395.15" waitingTime="3.50" waitingCount="6" stopTime="0.00" timeLoss="20.30" rerouteNo="0" devices="tripinfo_EW_4 ssm_EW_4" vType="cars" speedFactor="1.06" vaporized=""/>
    <tripinfo id="EW_5" depart="76.00" departLane="4_1_2" departPos="5.10" departSpeed="0.00" departDelay="0.00" arrival="115.00" arrivalLane="1_2_2" arrivalPos="186.40" arrivalSpeed="13.00" duration="39.00" routeLength="395.15" waitingTime="0.00" waitingCount="0" stopTime="0.00" timeLoss="8.26" rerouteNo="0" devices="tripinfo_EW_5 ssm_EW_5" vType="cars" speedFactor="1.08" vaporized=""/>
    <tripinfo id="NS_22" depart="66.00" departLane="5_1_2" departPos="5.10" departSpeed="0.00" departDelay="0.00" arrival="128.00" arrivalLane="1_3_2" arrivalPos="186.40" arrivalSpeed="13.00" duration="62.00" routeLength="395.15" waitingTime="17.00" waitingCount="2" stopTime="0.00" timeLoss="31.55" rerouteNo="0" devices="tripinfo_NS_22 ssm_NS_22" vType="cars" speedFactor="1.12" vaporized=""/>
    <tripinfo id="SN_25" depart="74.00" departLane="3_1_2" departPos="5.10" departSpeed="0.00" departDelay="0.00" arrival="128.00" arrivalLane="1_5_2" arrivalPos="186.40" arrivalSpeed="13.00" duration="54.00" routeLength="395.15" waitingTime="12.50" waitingCount="2" stopTime="0.00" timeLoss="23.55" rerouteNo="0" devices="tripinfo_SN_25 ssm_SN_25" vType="cars" speedFactor="0.91" vaporized=""/>
    <tripinfo id="NS_26" depart="75.00" departLane="5_1_2" departPos="5.10" departSpeed="0.00" departDelay="0.00" arrival="129.50" arrivalLane="1_3_2" arrivalPos="186.40" arrivalSpeed="13.00" duration="54.50" routeLength="395.15" waitingTime="7.00" waitingCount="3" stopTime="0.00" timeLoss="24.09" rerouteNo="0" devices="tripinfo_NS_26 ssm_NS_26" vType="cars" speedFactor="0.88" vaporized=""/>
    <tripinfo id="SN_28" depart="81.00" departLane="3_1_2" departPos="5.10" departSpeed="0.00" departDelay="0.00" arrival="129.50" arrivalLane="1_5_2" arrivalPos="186.40" arrivalSpeed="13.00" duration="48.50" routeLength="395.15" waitingTime="1.50" waitingCount="3" stopTime="0.00" timeLoss="18.09" rerouteNo="0" devices="tripinfo_SN_28 ssm_SN_28" vType="cars" speedFactor="1.05" vaporized=""/>
    <tripinfo id="NS_29" depart="83.00" departLane="5_1_2" departPos="5.10" departSpeed="0.00" departDelay="0.00" arrival="131.50" arrivalLane="1_3_2" arrivalPos="186.40" arrivalSpeed="13.00" duration="48.50" routeLength="395.15" waitingTime="1.50" waitingCount="3" stopTime="0.00" timeLoss="17.63" rerouteNo="0" devices="tripinfo_NS_29 ssm_NS_29" vType="cars" speedFactor="0.91" vaporized=""/>
    <tripinfo id="SN_30" depart="84.50" departLane="3_1_2" departPos="5.10" departSpeed="0.00" departDelay="1.50" arrival="131.50" arrivalLane="1_5_2" arrivalPos="186.40" arrivalSpeed="13.00" duration="47.00" routeLength="395.15" waitingTime="1.00" waitingCount="2" stopTime="0.00" timeLoss="16.13" rerouteNo="0" devices="tripinfo_SN_30 ssm_SN_30" vType="cars" speedFactor="1.00" vaporized=""/>
    <tripinfo id="SN_31" depart="87.50" departLane="3_1_2" departPos="5.10" departSpeed="0.00" departDelay="3.50" arrival="133.00" arrivalLane="1_5_2" arrivalPos="186.40" arrivalSpeed="13.00" duration="45.50" routeLength="395.15" waitingTime="0.00" waitingCount="0" stopTime="0.00" timeLoss="14.77" rerouteNo="0" devices="tripinfo_SN_31 ssm_SN_31" vType="cars" speedFactor="1.03" vaporized=""/>
    <tripinfo id="NS_32" depart="87.00" departLane="5_1_2" departPos="5.10" departSpeed="0.00" departDelay="0.00" arrival="133.00" arrivalLane="1_3_2" arrivalPos="186.40" arrivalSpeed="13.00" duration="46.00" routeLength="395.15" waitingTime="1.00" waitingCount="2" stopTime="0.00" timeLoss="15.29" rerouteNo="0" devices="tripinfo_NS_32 ssm_NS_32" vType="cars" speedFactor="0.98" vaporized=""/>
    <tripinfo id="SN_33" depart="90.50" departLane="3_1_2" departPos="5.10" departSpeed="0.00" departDelay="0.50" arrival="135.00" arrivalLane="1_5_2" arrivalPos="186.40" arrivalSpeed="13.00" duration="44.50" routeLength="395.15" waitingTime="0.00" waitingCount="0" stopTime="0.00" timeLoss="13.67" rerouteNo="0" devices="tripinfo_SN_33 ssm_SN_33" vType="cars" speedFactor="1.09" vaporized=""/>
    <tripinfo id="SN_34" depart="97.00" departLane="3_1_2" departPos="5.10" departSpeed="0.00" departDelay="0.00" arrival="137.00" arrivalLane="1_5_2" arrivalPos="186.40" arrivalSpeed="13.00" duration="40.00" routeLength="395.15" waitingTime="0.00" waitingCount="0" stopTime="0.00" timeLoss="9.16" rerouteNo="0" devices="tripinfo_SN_34 ssm_SN_34" vType="cars" speedFactor="1.14" vaporized=""/>
    <tripinfo id="SE_27" depart="78.00" departLane="3_1_1" departPos="5.10" departSpeed="0.00" departDelay="0.00" arrival="140.00" arrivalLane="1_4_1" arrivalPos="186.40" arrivalSpeed="13.00" duration="62.00" routeLength="379.42" waitingTime="21.50" waitingCount="2" stopTime="0.00" timeLoss="31.91" rerouteNo="0" devices="tripinfo_SE_27 ssm_SE_27" vType="cars" speedFactor="1.13" vaporized=""/>
    <tripinfo id="NW_23" depart="69.00" departLane="5_1_1" departPos="5.10" departSpeed="0.00" departDelay="0.00" arrival="142.50" arrivalLane="1_2_1" arrivalPos="186.40" arrivalSpeed="13.00" duration="73.50" routeLength="379.43" waitingTime="29.00" waitingCount="4" stopTime="0.00" timeLoss="43.47" rerouteNo="0" devices="tripinfo_NW_23 ssm_NW_23" vType="cars" speedFactor="1.18" vaporized=""/>
    <tripinfo id="SN_38" depart="107.00" departLane="3_1_2" departPos="5.10" departSpeed="0.00" departDelay="0.00" arrival="142.50" arrivalLane="1_5_2" arrivalPos="186.40" arrivalSpeed="13.00" duration="35.50" routeLength="395.15" waitingTime="0.00" waitingCount="0" stopTime="0.00" timeLoss="4.96" rerouteNo="0" devices="tripinfo_SN_38 ssm_SN_38" vType="cars" speedFactor="1.08" vaporized=""/>
    <tripinfo id="NW_36" depart="101.00" departLane="5_1_1" departPos="5.10" departSpeed="0.00" departDelay="0.00" arrival="144.00" arrivalLane="1_2_1" arrivalPos="186.40" arrivalSpeed="13.00" duration="43.00" routeLength="379.43" waitingTime="2.00" waitingCount="1" stopTime="0.00" timeLoss="12.84" rerouteNo="0" devices="tripinfo_NW_36 ssm_NW_36" vType="cars" speedFactor="0.92" vaporized=""/>
    <tripinfo id="NS_37" depart="105.00" departLane="5_1_2" departPos="5.10" departSpeed="0.00" departDelay="0.00" arrival="144.00" arrivalLane="1_3_2" arrivalPos="186.40" arrivalSpeed="11.00" duration="39.00" routeLength="395.15" waitingTime="0.00" waitingCount="0" stopTime="0.00" timeLoss="8.48" rerouteNo="0" devices="tripinfo_NS_37 ssm_NS_37" vType="cars" speedFactor="1.09" vaporized=""/>
    <tripinfo id="SN_40" depart="110.00" departLane="3_1_2" departPos="5.10" departSpeed="0.00" departDelay="0.00" arrival="146.50" arrivalLane="1_5_2" arrivalPos="186.40" arrivalSpeed="13.00" duration="36.50" routeLength="395.15" waitingTime="0.00" waitingCount="0" stopTime="0.00" timeLoss="5.72" rerouteNo="0" devices="tripinfo_SN_40 ssm_SN_40" vType="cars" speedFactor="1.10" vaporized=""/>
    <tripinfo id="NS_41" depart="111.00" departLane="5_1_2" departPos="5.10" departSpeed="0.00" departDelay="0.00" arrival="147.00" arrivalLane="1_3_2" arrivalPos="186.40" arrivalSpeed="13.00" duration="36.00" routeLength="395.15" waitingTime="0.00" waitingCount="0" stopTime="0.00" timeLoss="5.36" rerouteNo="0" devices="tripinfo_NS_41 ssm_NS_41" vType="cars" speedFactor="1.03" vaporized=""/>
    <tripinfo id="WE_6" depart="78.00" departLane="2_1_2" departPos="5.10" departSpeed="0.00" departDelay="1.00" arrival="163.00" arrivalLane="1_4_2" arrivalPos="186.40" arrivalSpeed="13.00" duration="85.00" routeLength="395.15" waitingTime="40.50" waitingCount="2" stopTime="0.00" timeLoss="54.55" rerouteNo="0" devices="tripinfo_WE_6 ssm_WE_6" vType="cars" speedFactor="0.99" vaporized=""/>
    <tripinfo id="EW_6" depart="92.00" departLane="4_1_2" departPos="5.10" departSpeed="0.00" departDelay="0.00" arrival="163.00" arrivalLane="1_2_2" arrivalPos="186.40" arrivalSpeed="13.00" duration="71.00" routeLength="395.15" waitingTime="27.50" waitingCount="1" stopTime="0.00" timeLoss="40.55" rerouteNo="0" devices="tripinfo_EW_6 ssm_EW_6" vType="cars" speedFactor="0.89" vaporized=""/>
    <tripinfo id="WE_7" depart="89.00" departLane="2_1_2" departPos="5.10" departSpeed="0.00" departDelay="0.00" arrival="164.50" arrivalLane="1_4_2" arrivalPos="186.40" arrivalSpeed="13.00" duration="75.50" routeLength="395.15" waitingTime="30.00" waitingCount="3" stopTime="0.00" timeLoss="45.09" rerouteNo="0" devices="tripinfo_WE_7 ssm_WE_7" vType="cars" speedFactor="0.94" vaporized=""/>
    <tripinfo id="EW_7" depart="111.00" departLane="4_1_2" departPos="5.10" departSpeed="0.00" departDelay="0.00" arrival="164.50" arrivalLane="1_2_2" arrivalPos="186.40" arrivalSpeed="13.00" duration="53.50" routeLength="395.15" waitingTime="8.00" waitingCount="5" stopTime="0.00" timeLoss="23.09" rerouteNo="0" devices="tripinfo_EW_7 ssm_EW_7" vType="cars" speedFactor="1.03" vaporized=""/>
    <tripinfo id="WE_8" depart="92.00" departLane="2_1_2" departPos="5.10" departSpeed="0.00" departDelay="0.00" arrival="166.50" arrivalLane="1_4_2" arrivalPos="186.40" arrivalSpeed="13.00" duration="74.50" routeLength="395.15" waitingTime="25.00" waitingCount="9" stopTime="0.00" timeLoss="43.63" rerouteNo="0" devices="tripinfo_WE_8 ssm_WE_8" vType="cars" speedFactor="0.90" vaporized=""/>
    <tripinfo id="EW_8" depart="123.00" departLane="4_1_2" departPos="5.10" departSpeed="0.00" departDelay="0.00" arrival="166.50" arrivalLane="1_2_2" arrivalPos="186.40" arrivalSpeed="13.00" duration="43.50" routeLength="395.15" waitingTime="0.00" waitingCount="0" stopTime="0.00" timeLoss="12.63" rerouteNo="0" devices="tripinfo_EW_8 ssm_EW_8" vType="cars" speedFactor="0.90" vaporized=""/>
    <tripinfo id="WE_9" depart="106.00" departLane="2_1_2" departPos="5.10" departSpeed="0.00" departDelay="0.00" arrival="168.00" arrivalLane="1_4_2" arrivalPos="186.40" arrivalSpeed="13.00" duration="62.00" routeLength="395.15" waitingTime="14.00" waitingCount="5" stopTime="0.00" timeLoss="31.30" rerouteNo="0" devices="tripinfo_WE_9 ssm_WE_9" vType="cars" speedFactor="1.03" vaporized=""/>
    <tripinfo id="EW_9" depart="128.00" departLane="4_1_2" departPos="5.10" departSpeed="0.00" departDelay="0.00" arrival="168.00" arrivalLane="1_2_2" arrivalPos="186.40" arrivalSpeed="13.00" duration="40.00" routeLength="395.15" waitingTime="0.00" waitingCount="0" stopTime="0.00" timeLoss="9.27" rerouteNo="0" devices="tripinfo_EW_9 ssm_EW_9" vType="cars" speedFactor="1.10" vaporized=""/>
    <tripinfo id="WS_48" depart="134.00" departLane="2_1_1" departPos="5.10" departSpeed="0.00" departDelay="0.00" arrival="169.50" arrivalLane="1_3_1" arrivalPos="186.40" arrivalSpeed="13.00" duration="35.50" routeLength="379.43" waitingTime="0.00" waitingCount="0" stopTime="0.00" timeLoss="5.29" rerouteNo="0" devices="tripinfo_WS_48 ssm_WS_48" vType="cars" speedFactor="0.87" vaporized=""/>
    <tripinfo id="WE_10" depart="116.00" departLane="2_1_2" departPos="5.10" departSpeed="0.00" departDelay="0.00" arrival="170.00" arrivalLane="1_4_2" arrivalPos="186.40" arrivalSpeed="13.00" duration="54.00" routeLength="395.15" waitingTime="7.50" waitingCount="4" stopTime="0.00" timeLoss="23.19" rerouteNo="0" devices="tripinfo_WE_10 ssm_WE_10" vType="cars" speedFactor="1.08" vaporized=""/>
    <tripinfo id="WE_11" depart="118.50" departLane="2_1_2" departPos="5.10" departSpeed="0.00" departDelay="1.50" arrival="171.50" arrivalLane="1_4_2" arrivalPos="186.40" arrivalSpeed="13.00" duration="53.00" routeLength="395.15" waitingTime="5.50" waitingCount="6" stopTime="0.00" timeLoss="22.53" rerouteNo="0" devices="tripinfo_WE_11 ssm_WE_11" vType="cars" speedFactor="0.94" vaporized=""/>
    <tripinfo id="EN_39" depart="109.00" departLane="4_1_1" departPos="5.10" departSpeed="0.00" departDelay="0.00" arrival="173.00" arrivalLane="1_5_1" arrivalPos="186.40" arrivalSpeed="13.00" duration="64.00" routeLength="379.42" waitingTime="21.50" waitingCount="2" stopTime="0.00" timeLoss="33.83" rerouteNo="0" devices="tripinfo_EN_39 ssm_EN_39" vType="cars" speedFactor="1.06" vaporized=""/>
    <tripinfo id="WE_12" depart="121.00" departLane="2_1_2" departPos="5.10" departSpeed="0.00" departDelay="3.00" arrival="173.50" arrivalLane="1_4_2" arrivalPos="186.40" arrivalSpeed="13.00" duration="52.50" routeLength="395.15" waitingTime="3.50" waitingCount="7" stopTime="0.00" timeLoss="21.96" rerouteNo="0" devices="tripinfo_WE_12 ssm_WE_12" vType="cars" speedFactor="0.92" vaporized=""/>
    <tripinfo id="WE_13" depart="124.50" departLane="2_1_2" departPos="5.10" departSpeed="0.00" departDelay="5.50" arrival="175.50" arrivalLane="1_4_2" arrivalPos="186.40" arrivalSpeed="13.00" duration="51.00" routeLength="395.15" waitingTime="3.00" waitingCount="6" stopTime="0.00" timeLoss="20.44" rerouteNo="0" devices="tripinfo_WE_13 ssm_WE_13" vType="cars" speedFactor="1.08" vaporized=""/>
    <tripinfo id="WE_14" depart="126.50" departLane="2_1_2" departPos="5.10" departSpeed="0.00" departDelay="4.50" arrival="177.50" arrivalLane="1_4_2" arrivalPos="186.40" arrivalSpeed="13.00" duration="51.00" routeLength="395.15" waitingTime="2.50" waitingCount="5" stopTime="0.00" timeLoss="20.46" rerouteNo="0" devices="tripinfo_WE_14 ssm_WE_14" vType="cars" speedFactor="0.89" vaporized=""/>
    <tripinfo id="EW_10" depart="144.00" departLane="4_1_2" departPos="5.10" departSpeed="0.00" departDelay="0.00" arrival="179.00" arrivalLane="1_2_2" arrivalPos="186.40" arrivalSpeed="13.00" duration="35.00" routeLength="395.15" waitingTime="0.00" waitingCount="0" stopTime="0.00" timeLoss="4.29" rerouteNo="0" devices="tripinfo_EW_10 ssm_EW_10" vType="cars" speedFactor="1.03" vaporized=""/>
    <tripinfo id="WE_15" depart="129.00" departLane="2_1_2" departPos="5.10" departSpeed="0.00" departDelay="4.00" arrival="179.50" arrivalLane="1_4_2" arrivalPos="186.40" arrivalSpeed="13.00" duration="50.50" routeLength="395.15" waitingTime="1.50" waitingCount="3" stopTime="0.00" timeLoss="20.01" rerouteNo="0" devices="tripinfo_WE_15 ssm_WE_15" vType="cars" speedFactor="0.93" vaporized=""/>
    <tripinfo id="EW_11" depart="146.50" departLane="4_1_2" departPos="5.10" departSpeed="0.00" departDelay="1.50" arrival="182.50" arrivalLane="1_2_2" arrivalPos="186.40" arrivalSpeed="13.00" duration="36.00" routeLength="395.15" waitingTime="0.00" waitingCount="0" stopTime="0.00" timeLoss="5.55" rerouteNo="0" devices="tripinfo_EW_11 ssm_EW_11" vType="cars" speedFactor="1.11" vaporized=""/>
    <personinfo id="person_WE_s.0" depart="8.00" type="DEFAULT_PEDTYPE" speedFactor="0.98" duration="177.00" waitingTime="0.00" timeLoss="13.71" traveltime="177.00">
        <walk depart="8.00" departPos="100.00" arrival="185.00" arrivalPos="93.20" duration="177.00" routeLength="221.17" timeLoss="13.71" maxSpeed="1.35"/>
    </personinfo>
    <tripinfo id="NS_42" depart="122.00" departLane="5_1_2" departPos="5.10" departSpeed="0.00" departDelay="0.00" arrival="193.00" arrivalLane="1_3_2" arrivalPos="186.40" arrivalSpeed="13.00" duration="71.00" routeLength="395.15" waitingTime="28.00" waitingCount="2" stopTime="0.00" timeLoss="40.55" rerouteNo="0" devices="tripinfo_NS_42 ssm_NS_42" vType="cars" speedFactor="0.97" vaporized=""/>
    <tripinfo id="SN_45" depart="128.00" departLane="3_1_2" departPos="5.10" departSpeed="0.00" departDelay="0.00" arrival="193.00" arrivalLane="1_5_2" arrivalPos="186.40" arrivalSpeed="13.00" duration="65.00" routeLength="395.15" waitingTime="22.50" waitingCount="1" stopTime="0.00" timeLoss="34.55" rerouteNo="0" devices="tripinfo_SN_45 ssm_SN_45" vType="cars" speedFactor="1.00" vaporized=""/>