<?xml version="1.0" encoding="UTF-8"?>

<!-- generated on 2025-06-25 17:39:14 by Eclipse SUMO GUI Version 1.22.0
<sumoConfiguration xmlns:xsi="http://www.w3.org/2001/XMLSchema-instance" xsi:noNamespaceSchemaLocation="http://sumo.dlr.de/xsd/sumoConfiguration.xsd">

    <input>
        <net-file value="/home/naderian/Desktop/Shakiba/MMSVCC/environment/network_model/single_intersection_bike.net.xml"/>
        <route-files value="/home/naderian/Desktop/Shakiba/MMSVCC/environment/network_model/single_intersection.rou.xml"/>
        <additional-files value="/home/naderian/Desktop/Shakiba/MMSVCC/environment/network_model/single_intersection.add_actuated.xml"/>
    </input>

    <output>
        <queue-output value="/home/naderian/Desktop/Shakiba/MMSVCC/environment/simulation_data/single_intersection/queues_actuated_pene_100.xml"/>
        <tripinfo-output value="/home/naderian/Desktop/Shakiba/MMSVCC/environment/simulation_data/single_intersection/tripinfo_actuated_pene_100.xml"/>
    </output>

    <time>
        <begin value="0"/>
        <step-length value="0.5"/>
    </time>

    <processing>
        <waiting-time-memory value="1000"/>
    </processing>

    <report>
        <verbose value="true"/>
        <no-step-log value="true"/>
    </report>

    <ssm_device>
        <device.ssm.file value="/home/naderian/Desktop/Shakiba/MMSVCC/environment/simulation_data/single_intersection/SSMinfo_actuated_pene_100.xml"/>
    </ssm_device>

    <traci_server>
        <remote-port value="38447"/>
    </traci_server>

    <gui_only>
        <start value="true"/>
    </gui_only>

</sumoConfiguration>
-->

<tripinfos xmlns:xsi="http://www.w3.org/2001/XMLSchema-instance" xsi:noNamespaceSchemaLocation="http://sumo.dlr.de/xsd/tripinfo_file.xsd">
    <tripinfo id="SN_0" depart="0.00" departLane="3_1_3" departPos="5.10" departSpeed="0.00" departDelay="0.00" arrival="36.50" arrivalLane="1_5_2" arrivalPos="184.90" arrivalSpeed="12.37" duration="36.50" routeLength="395.12" waitingTime="0.00" waitingCount="0" stopTime="0.00" timeLoss="5.68" rerouteNo="0" devices="tripinfo_SN_0 ssm_SN_0" vType="cars" speedFactor="1.02" vaporized=""/>
    <tripinfo id="NS_1" depart="1.00" departLane="5_1_3" departPos="5.10" departSpeed="0.00" departDelay="0.00" arrival="37.00" arrivalLane="1_3_2" arrivalPos="184.90" arrivalSpeed="11.90" duration="36.00" routeLength="395.12" waitingTime="0.00" waitingCount="0" stopTime="0.00" timeLoss="5.43" rerouteNo="0" devices="tripinfo_NS_1 ssm_NS_1" vType="cars" speedFactor="1.01" vaporized=""/>
    <tripinfo id="SN_2" depart="5.00" departLane="3_1_3" departPos="5.10" departSpeed="0.00" departDelay="0.00" arrival="41.00" arrivalLane="1_5_2" arrivalPos="184.90" arrivalSpeed="11.91" duration="36.00" routeLength="395.12" waitingTime="0.00" waitingCount="0" stopTime="0.00" timeLoss="5.28" rerouteNo="0" devices="tripinfo_SN_2 ssm_SN_2" vType="cars" speedFactor="1.05" vaporized=""/>
    <tripinfo id="SE_4" depart="9.00" departLane="3_1_2" departPos="5.10" departSpeed="0.00" departDelay="0.00" arrival="46.00" arrivalLane="1_4_2" arrivalPos="184.90" arrivalSpeed="11.66" duration="37.00" routeLength="378.82" waitingTime="0.00" waitingCount="0" stopTime="0.00" timeLoss="6.91" rerouteNo="0" devices="tripinfo_SE_4 ssm_SE_4" vType="cars" speedFactor="0.94" vaporized=""/>
    <tripinfo id="NS_5" depart="11.00" departLane="5_1_3" departPos="5.10" departSpeed="0.00" departDelay="0.00" arrival="46.50" arrivalLane="1_3_2" arrivalPos="184.90" arrivalSpeed="12.32" duration="35.50" routeLength="395.12" waitingTime="0.00" waitingCount="0" stopTime="0.00" timeLoss="4.79" rerouteNo="0" devices="tripinfo_NS_5 ssm_NS_5" vType="cars" speedFactor="0.91" vaporized=""/>
    <tripinfo id="NS_8" depart="17.00" departLane="5_1_3" departPos="5.10" departSpeed="0.00" departDelay="0.00" arrival="53.50" arrivalLane="1_3_2" arrivalPos="184.90" arrivalSpeed="12.48" duration="36.50" routeLength="395.12" waitingTime="0.00" waitingCount="0" stopTime="0.00" timeLoss="5.91" rerouteNo="0" devices="tripinfo_NS_8 ssm_NS_8" vType="cars" speedFactor="0.95" vaporized=""/>
    <tripinfo id="SN_9" depart="19.00" departLane="3_1_3" departPos="5.10" departSpeed="0.00" departDelay="1.00" arrival="55.00" arrivalLane="1_5_2" arrivalPos="184.90" arrivalSpeed="11.89" duration="36.00" routeLength="395.12" waitingTime="0.00" waitingCount="0" stopTime="0.00" timeLoss="5.31" rerouteNo="0" devices="tripinfo_SN_9 ssm_SN_9" vType="cars" speedFactor="0.76" vaporized=""/>
    <tripinfo id="NS_11" depart="20.00" departLane="5_1_3" departPos="5.10" departSpeed="0.00" departDelay="0.00" arrival="55.50" arrivalLane="1_3_2" arrivalPos="184.90" arrivalSpeed="11.69" duration="35.50" routeLength="395.12" waitingTime="0.00" waitingCount="0" stopTime="0.00" timeLoss="5.09" rerouteNo="0" devices="tripinfo_NS_11 ssm_NS_11" vType="cars" speedFactor="1.01" vaporized=""/>
    <tripinfo id="EN_10" depart="20.00" departLane="4_1_2" departPos="5.10" departSpeed="0.00" departDelay="0.00" arrival="66.50" arrivalLane="1_5_2" arrivalPos="184.90" arrivalSpeed="11.65" duration="46.50" routeLength="378.82" waitingTime="7.50" waitingCount="1" stopTime="0.00" timeLoss="16.53" rerouteNo="0" devices="tripinfo_EN_10 ssm_EN_10" vType="cars" speedFactor="0.96" vaporized=""/>
    <tripinfo id="WE_0" depart="1.00" departLane="2_1_3" departPos="5.10" departSpeed="0.00" departDelay="0.00" arrival="85.50" arrivalLane="1_4_2" arrivalPos="184.90" arrivalSpeed="12.71" duration="84.50" routeLength="395.12" waitingTime="44.00" waitingCount="1" stopTime="0.00" timeLoss="53.73" rerouteNo="0" devices="tripinfo_WE_0 ssm_WE_0" vType="cars" speedFactor="1.12" vaporized=""/>
    <tripinfo id="WE_1" depart="12.00" departLane="2_1_3" departPos="5.10" departSpeed="0.00" departDelay="0.00" arrival="86.00" arrivalLane="1_4_2" arrivalPos="184.90" arrivalSpeed="11.96" duration="74.00" routeLength="395.12" waitingTime="32.50" waitingCount="1" stopTime="0.00" timeLoss="43.20" rerouteNo="0" devices="tripinfo_WE_1 ssm_WE_1" vType="cars" speedFactor="1.30" vaporized=""/>
    <tripinfo id="EW_0" depart="22.00" departLane="4_1_3" departPos="5.10" departSpeed="0.00" departDelay="0.00" arrival="86.00" arrivalLane="1_2_2" arrivalPos="184.90" arrivalSpeed="12.50" duration="64.00" routeLength="395.12" waitingTime="22.50" waitingCount="1" stopTime="0.00" timeLoss="33.61" rerouteNo="0" devices="tripinfo_EW_0 ssm_EW_0" vType="cars" speedFactor="1.01" vaporized=""/>
    <tripinfo id="EW_1" depart="42.00" departLane="4_1_3" departPos="5.10" departSpeed="0.00" departDelay="0.00" arrival="86.00" arrivalLane="1_2_3" arrivalPos="184.90" arrivalSpeed="12.26" duration="44.00" routeLength="395.12" waitingTime="2.50" waitingCount="1" stopTime="0.00" timeLoss="13.18" rerouteNo="0" devices="tripinfo_EW_1 ssm_EW_1" vType="cars" speedFactor="1.02" vaporized=""/>
    <tripinfo id="EW_2" depart="46.00" departLane="4_1_3" departPos="5.10" departSpeed="0.00" departDelay="0.00" arrival="87.50" arrivalLane="1_2_3" arrivalPos="184.90" arrivalSpeed="11.77" duration="41.50" routeLength="395.12" waitingTime="0.00" waitingCount="0" stopTime="0.00" timeLoss="10.91" rerouteNo="0" devices="tripinfo_EW_2 ssm_EW_2" vType="cars" speedFactor="1.18" vaporized=""/>
    <tripinfo id="WE_2" depart="22.00" departLane="2_1_3" departPos="5.10" departSpeed="0.00" departDelay="0.00" arrival="88.00" arrivalLane="1_4_2" arrivalPos="184.90" arrivalSpeed="12.77" duration="66.00" routeLength="395.12" waitingTime="21.00" waitingCount="1" stopTime="0.00" timeLoss="35.58" rerouteNo="0" devices="tripinfo_WE_2 ssm_WE_2" vType="cars" speedFactor="0.89" vaporized=""/>
    <tripinfo id="WE_3" depart="27.00" departLane="2_1_3" departPos="5.10" departSpeed="0.00" departDelay="0.00" arrival="91.00" arrivalLane="1_4_3" arrivalPos="184.90" arrivalSpeed="12.30" duration="64.00" routeLength="395.12" waitingTime="18.00" waitingCount="1" stopTime="0.00" timeLoss="33.16" rerouteNo="0" devices="tripinfo_WE_3 ssm_WE_3" vType="cars" speedFactor="1.06" vaporized=""/>
    <tripinfo id="WE_4" depart="50.00" departLane="2_1_3" departPos="5.10" departSpeed="0.00" departDelay="0.00" arrival="92.50" arrivalLane="1_4_2" arrivalPos="184.90" arrivalSpeed="11.60" duration="42.50" routeLength="395.12" waitingTime="0.00" waitingCount="0" stopTime="0.00" timeLoss="11.99" rerouteNo="0" devices="tripinfo_WE_4 ssm_WE_4" vType="cars" speedFactor="1.01" vaporized=""/>
    <tripinfo id="EW_3" depart="59.00" departLane="4_1_3" departPos="5.10" departSpeed="0.00" departDelay="0.00" arrival="96.50" arrivalLane="1_2_2" arrivalPos="184.90" arrivalSpeed="12.73" duration="37.50" routeLength="395.12" waitingTime="0.00" waitingCount="0" stopTime="0.00" timeLoss="6.87" rerouteNo="0" devices="tripinfo_EW_3 ssm_EW_3" vType="cars" speedFactor="0.98" vaporized=""/>
    <tripinfo id="EW_4" depart="63.00" departLane="4_1_3" departPos="5.10" departSpeed="0.00" departDelay="1.00" arrival="99.00" arrivalLane="1_2_2" arrivalPos="184.90" arrivalSpeed="11.98" duration="36.00" routeLength="395.12" waitingTime="0.00" waitingCount="0" stopTime="0.00" timeLoss="5.18" rerouteNo="0" devices="tripinfo_EW_4 ssm_EW_4" vType="cars" speedFactor="0.95" vaporized=""/>
    <tripinfo id="WE-bike.0" depart="1.50" departLane="2_1_2" departPos="1.70" departSpeed="0.00" departDelay="0.54" arrival="105.00" arrivalLane="1_4_1" arrivalPos="184.90" arrivalSpeed="5.76" duration="103.50" routeLength="398.52" waitingTime="28.00" waitingCount="1" stopTime="0.00" timeLoss="36.89" rerouteNo="0" devices="tripinfo_WE-bike.0 ssm_WE-bike.0" vType="bike" speedFactor="1.08" vaporized=""/>
    <tripinfo id="WE-bike.1" depart="7.50" departLane="2_1_3" departPos="1.70" departSpeed="0.00" departDelay="0.18" arrival="105.50" arrivalLane="1_4_2" arrivalPos="184.90" arrivalSpeed="5.98" duration="98.00" routeLength="398.52" waitingTime="22.00" waitingCount="1" stopTime="0.00" timeLoss="33.49" rerouteNo="0" devices="tripinfo_WE-bike.1 ssm_WE-bike.1" vType="bike" speedFactor="1.12" vaporized=""/>
    <tripinfo id="WE-bike.7" depart="39.50" departLane="2_1_4" departPos="1.70" departSpeed="0.00" departDelay="0.49" arrival="111.50" arrivalLane="1_4_1" arrivalPos="184.90" arrivalSpeed="6.52" duration="72.00" routeLength="398.52" waitingTime="0.00" waitingCount="0" stopTime="0.00" timeLoss="11.45" rerouteNo="0" devices="tripinfo_WE-bike.7 ssm_WE-bike.7" vType="bike" speedFactor="1.19" vaporized=""/>
    <tripinfo id="ES_24" depart="73.00" departLane="4_1_4" departPos="5.10" departSpeed="0.00" departDelay="0.00" arrival="114.00" arrivalLane="1_3_3" arrivalPos="184.90" arrivalSpeed="11.65" duration="41.00" routeLength="390.20" waitingTime="1.00" waitingCount="1" stopTime="0.00" timeLoss="10.58" rerouteNo="0" devices="tripinfo_ES_24 ssm_ES_24" vType="cars" speedFactor="1.05" vaporized=""/>
    <tripinfo id="WS_3" depart="7.00" departLane="2_1_2" departPos="5.10" departSpeed="0.00" departDelay="0.00" arrival="114.50" arrivalLane="1_3_2" arrivalPos="184.90" arrivalSpeed="11.98" duration="107.50" routeLength="378.83" waitingTime="57.50" waitingCount="3" stopTime="0.00" timeLoss="77.66" rerouteNo="0" devices="tripinfo_WS_3 ssm_WS_3" vType="cars" speedFactor="1.01" vaporized=""/>
    <tripinfo id="WN_7" depart="17.50" departLane="2_1_4" departPos="5.10" departSpeed="0.00" departDelay="1.50" arrival="114.50" arrivalLane="1_5_3" arrivalPos="184.90" arrivalSpeed="11.81" duration="97.00" routeLength="391.64" waitingTime="54.00" waitingCount="1" stopTime="0.00" timeLoss="66.07" rerouteNo="0" devices="tripinfo_WN_7 ssm_WN_7" vType="cars" speedFactor="0.93" vaporized=""/>
    <tripinfo id="EW-bike.0" depart="9.00" departLane="4_1_2" departPos="1.70" departSpeed="0.00" departDelay="0.21" arrival="115.00" arrivalLane="1_2_1" arrivalPos="184.90" arrivalSpeed="4.41" duration="106.00" routeLength="398.52" waitingTime="12.00" waitingCount="1" stopTime="0.00" timeLoss="20.15" rerouteNo="0" devices="tripinfo_EW-bike.0 ssm_EW-bike.0" vType="bike" speedFactor="0.84" vaporized=""/>
    <tripinfo id="WE-bike.4" depart="23.00" departLane="2_1_2" departPos="1.70" departSpeed="0.00" departDelay="0.39" arrival="116.00" arrivalLane="1_4_1" arrivalPos="184.90" arrivalSpeed="6.27" duration="93.00" routeLength="398.52" waitingTime="11.00" waitingCount="2" stopTime="0.00" timeLoss="29.46" rerouteNo="0" devices="tripinfo_WE-bike.4 ssm_WE-bike.4" vType="bike" speedFactor="1.13" vaporized=""/>
    <tripinfo id="EW-bike.3" depart="54.00" departLane="4_1_4" departPos="1.70" departSpeed="0.00" departDelay="0.02" arrival="118.00" arrivalLane="1_2_2" arrivalPos="184.90" arrivalSpeed="6.49" duration="64.00" routeLength="398.52" waitingTime="0.00" waitingCount="0" stopTime="0.00" timeLoss="5.20" rerouteNo="0" devices="tripinfo_EW-bike.3 ssm_EW-bike.3" vType="bike" speedFactor="1.22" vaporized=""/>
    <tripinfo id="WE-bike.5" depart="28.50" departLane="2_1_1" departPos="1.70" departSpeed="0.00" departDelay="0.33" arrival="119.50" arrivalLane="1_4_1" arrivalPos="184.90" arrivalSpeed="5.94" duration="91.00" routeLength="398.52" waitingTime="8.00" waitingCount="1" stopTime="0.00" timeLoss="26.94" rerouteNo="0" devices="tripinfo_WE-bike.5 ssm_WE-bike.5" vType="bike" speedFactor="1.12" vaporized=""/>
    <tripinfo id="EW-bike.1" depart="31.00" departLane="4_1_1" departPos="1.70" departSpeed="0.00" departDelay="0.04" arrival="121.00" arrivalLane="1_2_1" arrivalPos="184.90" arrivalSpeed="4.62" duration="90.00" routeLength="398.52" waitingTime="0.00" waitingCount="0" stopTime="0.00" timeLoss="5.12" rerouteNo="0" devices="tripinfo_EW-bike.1 ssm_EW-bike.1" vType="bike" speedFactor="0.85" vaporized=""/>
    <tripinfo id="NS_14" depart="28.50" departLane="5_1_3" departPos="5.10" departSpeed="0.00" departDelay="1.50" arrival="131.50" arrivalLane="1_3_3" arrivalPos="184.90" arrivalSpeed="11.59" duration="103.00" routeLength="395.12" waitingTime="62.50" waitingCount="1" stopTime="0.00" timeLoss="72.39" rerouteNo="0" devices="tripinfo_NS_14 ssm_NS_14" vType="cars" speedFactor="0.93" vaporized=""/>
    <tripinfo id="SN_15" depart="29.00" departLane="3_1_3" departPos="5.10" departSpeed="0.00" departDelay="0.00" arrival="131.50" arrivalLane="1_5_3" arrivalPos="184.90" arrivalSpeed="12.41" duration="102.50" routeLength="395.12" waitingTime="61.00" waitingCount="1" stopTime="0.00" timeLoss="71.91" rerouteNo="0" devices="tripinfo_SN_15 ssm_SN_15" vType="cars" speedFactor="0.85" vaporized=""/>
    <tripinfo id="NS_13" depart="26.00" departLane="5_1_3" departPos="5.10" departSpeed="0.00" departDelay="0.00" arrival="132.00" arrivalLane="1_3_2" arrivalPos="184.90" arrivalSpeed="11.79" duration="106.00" routeLength="395.12" waitingTime="63.50" waitingCount="1" stopTime="0.00" timeLoss="75.17" rerouteNo="0" devices="tripinfo_NS_13 ssm_NS_13" vType="cars" speedFactor="0.95" vaporized=""/>
    <tripinfo id="EW-bike.2" depart="39.00" departLane="4_1_2" departPos="1.70" departSpeed="0.00" departDelay="0.43" arrival="133.00" arrivalLane="1_2_1" arrivalPos="184.90" arrivalSpeed="4.24" duration="94.00" routeLength="398.52" waitingTime="0.00" waitingCount="0" stopTime="0.00" timeLoss="5.32" rerouteNo="0" devices="tripinfo_EW-bike.2 ssm_EW-bike.2" vType="bike" speedFactor="0.81" vaporized=""/>
    <tripinfo id="SN_18" depart="36.00" departLane="3_1_3" departPos="5.10" departSpeed="0.00" departDelay="0.00" arrival="133.50" arrivalLane="1_5_3" arrivalPos="184.90" arrivalSpeed="11.87" duration="97.50" routeLength="395.12" waitingTime="53.00" waitingCount="2" stopTime="0.00" timeLoss="66.80" rerouteNo="0" devices="tripinfo_SN_18 ssm_SN_18" vType="cars" speedFactor="0.96" vaporized=""/>
    <tripinfo id="SN_12" depart="25.00" departLane="3_1_3" departPos="5.10" departSpeed="0.00" departDelay="0.00" arrival="134.00" arrivalLane="1_5_2" arrivalPos="184.90" arrivalSpeed="12.74" duration="109.00" routeLength="395.12" waitingTime="66.50" waitingCount="2" stopTime="0.00" timeLoss="78.52" rerouteNo="0" devices="tripinfo_SN_12 ssm_SN_12" vType="cars" speedFactor="0.83" vaporized=""/>
    <tripinfo id="NS_22" depart="66.00" departLane="5_1_3" departPos="5.10" departSpeed="0.00" departDelay="0.00" arrival="134.00" arrivalLane="1_3_3" arrivalPos="184.90" arrivalSpeed="12.86" duration="68.00" routeLength="395.12" waitingTime="22.50" waitingCount="1" stopTime="0.00" timeLoss="37.15" rerouteNo="0" devices="tripinfo_NS_22 ssm_NS_22" vType="cars" speedFactor="0.93" vaporized=""/>
    <tripinfo id="NS_16" depart="31.00" departLane="5_1_3" departPos="5.10" departSpeed="0.00" departDelay="1.00" arrival="134.50" arrivalLane="1_3_2" arrivalPos="184.90" arrivalSpeed="11.55" duration="103.50" routeLength="395.12" waitingTime="57.00" waitingCount="1" stopTime="0.00" timeLoss="72.72" rerouteNo="0" devices="tripinfo_NS_16 ssm_NS_16" vType="cars" speedFactor="1.12" vaporized=""/>
    <tripinfo id="SN_20" depart="40.00" departLane="3_1_3" departPos="5.10" departSpeed="0.00" departDelay="0.00" arrival="135.50" arrivalLane="1_5_3" arrivalPos="184.90" arrivalSpeed="12.45" duration="95.50" routeLength="395.12" waitingTime="50.50" waitingCount="1" stopTime="0.00" timeLoss="64.91" rerouteNo="0" devices="tripinfo_SN_20 ssm_SN_20" vType="cars" speedFactor="0.84" vaporized=""/>
    <tripinfo id="NS_26" depart="75.50" departLane="5_1_3" departPos="5.10" departSpeed="0.00" departDelay="0.50" arrival="135.50" arrivalLane="1_3_3" arrivalPos="184.90" arrivalSpeed="12.89" duration="60.00" routeLength="395.12" waitingTime="15.00" waitingCount="1" stopTime="0.00" timeLoss="29.42" rerouteNo="0" devices="tripinfo_NS_26 ssm_NS_26" vType="cars" speedFactor="1.04" vaporized=""/>
    <tripinfo id="SN_17" depart="33.00" departLane="3_1_3" departPos="5.10" departSpeed="0.00" departDelay="0.00" arrival="136.00" arrivalLane="1_5_2" arrivalPos="184.90" arrivalSpeed="12.24" duration="103.00" routeLength="395.12" waitingTime="56.00" waitingCount="1" stopTime="0.00" timeLoss="72.53" rerouteNo="0" devices="tripinfo_SN_17 ssm_SN_17" vType="cars" speedFactor="1.10" vaporized=""/>
    <tripinfo id="NW-bike.0" depart="71.50" departLane="5_1_3" departPos="1.70" departSpeed="0.00" departDelay="0.46" arrival="136.00" arrivalLane="1_2_1" arrivalPos="184.90" arrivalSpeed="6.30" duration="64.50" routeLength="378.07" waitingTime="0.00" waitingCount="0" stopTime="0.00" timeLoss="5.00" rerouteNo="0" devices="tripinfo_NW-bike.0 ssm_NW-bike.0" vType="bike" speedFactor="1.15" vaporized=""/>
    <tripinfo id="NS_29" depart="83.00" departLane="5_1_3" departPos="5.10" departSpeed="0.00" departDelay="0.00" arrival="137.50" arrivalLane="1_3_2" arrivalPos="184.90" arrivalSpeed="12.81" duration="54.50" routeLength="395.12" waitingTime="9.50" waitingCount="1" stopTime="0.00" timeLoss="23.80" rerouteNo="0" devices="tripinfo_NS_29 ssm_NS_29" vType="cars" speedFactor="1.05" vaporized=""/>
    <tripinfo id="SN_25" depart="74.00" departLane="3_1_3" departPos="5.10" departSpeed="0.00" departDelay="0.00" arrival="138.00" arrivalLane="1_5_3" arrivalPos="184.90" arrivalSpeed="12.93" duration="64.00" routeLength="395.12" waitingTime="18.00" waitingCount="1" stopTime="0.00" timeLoss="33.16" rerouteNo="0" devices="tripinfo_SN_25 ssm_SN_25" vType="cars" speedFactor="1.01" vaporized=""/>
    <tripinfo id="SN_28" depart="81.00" departLane="3_1_3" departPos="5.10" departSpeed="0.00" departDelay="0.00" arrival="139.50" arrivalLane="1_5_2" arrivalPos="184.90" arrivalSpeed="12.56" duration="58.50" routeLength="395.12" waitingTime="12.50" waitingCount="1" stopTime="0.00" timeLoss="27.84" rerouteNo="0" devices="tripinfo_SN_28 ssm_SN_28" vType="cars" speedFactor="1.09" vaporized=""/>
    <tripinfo id="NS_32" depart="87.00" departLane="5_1_3" departPos="5.10" departSpeed="0.00" departDelay="0.00" arrival="139.50" arrivalLane="1_3_2" arrivalPos="184.90" arrivalSpeed="12.77" duration="52.50" routeLength="395.12" waitingTime="6.00" waitingCount="1" stopTime="0.00" timeLoss="21.80" rerouteNo="0" devices="tripinfo_NS_32 ssm_NS_32" vType="cars" speedFactor="0.98" vaporized=""/>
    <tripinfo id="NS_37" depart="105.00" departLane="5_1_3" departPos="5.10" departSpeed="0.00" departDelay="0.00" arrival="141.50" arrivalLane="1_3_2" arrivalPos="184.90" arrivalSpeed="11.99" duration="36.50" routeLength="395.12" waitingTime="0.00" waitingCount="0" stopTime="0.00" timeLoss="5.69" rerouteNo="0" devices="tripinfo_NS_37 ssm_NS_37" vType="cars" speedFactor="0.95" vaporized=""/>
    <tripinfo id="SN_31" depart="86.50" departLane="3_1_3" departPos="5.10" departSpeed="0.00" departDelay="2.50" arrival="142.00" arrivalLane="1_5_2" arrivalPos="184.90" arrivalSpeed="12.45" duration="55.50" routeLength="395.12" waitingTime="8.00" waitingCount="1" stopTime="0.00" timeLoss="24.69" rerouteNo="0" devices="tripinfo_SN_31 ssm_SN_31" vType="cars" speedFactor="0.88" vaporized=""/>
    <tripinfo id="SN_34" depart="97.00" departLane="3_1_3" departPos="5.10" departSpeed="0.00" departDelay="0.00" arrival="143.50" arrivalLane="1_5_2" arrivalPos="184.90" arrivalSpeed="12.79" duration="46.50" routeLength="395.12" waitingTime="0.00" waitingCount="0" stopTime="0.00" timeLoss="15.92" rerouteNo="0" devices="tripinfo_SN_34 ssm_SN_34" vType="cars" speedFactor="1.25" vaporized=""/>
    <tripinfo id="SN_38" depart="107.00" departLane="3_1_3" departPos="5.10" departSpeed="0.00" departDelay="0.00" arrival="145.00" arrivalLane="1_5_3" arrivalPos="184.90" arrivalSpeed="11.83" duration="38.00" routeLength="395.12" waitingTime="0.00" waitingCount="0" stopTime="0.00" timeLoss="7.58" rerouteNo="0" devices="tripinfo_SN_38 ssm_SN_38" vType="cars" speedFactor="0.98" vaporized=""/>
    <tripinfo id="SN_40" depart="110.00" departLane="3_1_3" departPos="5.10" departSpeed="0.00" departDelay="0.00" arrival="147.00" arrivalLane="1_5_2" arrivalPos="184.90" arrivalSpeed="12.01" duration="37.00" routeLength="395.12" waitingTime="0.00" waitingCount="0" stopTime="0.00" timeLoss="6.43" rerouteNo="0" devices="tripinfo_SN_40 ssm_SN_40" vType="cars" speedFactor="1.12" vaporized=""/>
    <tripinfo id="NS_41" depart="111.00" departLane="5_1_3" departPos="5.10" departSpeed="0.00" departDelay="0.00" arrival="147.00" arrivalLane="1_3_3" arrivalPos="184.90" arrivalSpeed="11.83" duration="36.00" routeLength="395.12" waitingTime="0.00" waitingCount="0" stopTime="0.00" timeLoss="5.32" rerouteNo="0" devices="tripinfo_NS_41 ssm_NS_41" vType="cars" speedFactor="1.05" vaporized=""/>
    <tripinfo id="SE_19" depart="39.00" departLane="3_1_2" departPos="5.10" departSpeed="0.00" departDelay="0.00" arrival="147.50" arrivalLane="1_4_2" arrivalPos="184.90" arrivalSpeed="12.02" duration="108.50" routeLength="378.82" waitingTime="56.50" waitingCount="3" stopTime="0.00" timeLoss="78.37" rerouteNo="0" devices="tripinfo_SE_19 ssm_SE_19" vType="cars" speedFactor="0.92" vaporized=""/>
    <tripinfo id="NS-bike.0" depart="77.50" departLane="5_1_1" departPos="1.70" departSpeed="0.00" departDelay="0.24" arrival="148.00" arrivalLane="1_3_1" arrivalPos="184.90" arrivalSpeed="5.85" duration="70.50" routeLength="398.52" waitingTime="0.00" waitingCount="0" stopTime="0.00" timeLoss="4.80" rerouteNo="0" devices="tripinfo_NS-bike.0 ssm_NS-bike.0" vType="bike" speedFactor="1.10" vaporized=""/>
    <tripinfo id="SE_27" depart="78.00" departLane="3_1_2" departPos="5.10" departSpeed="0.00" departDelay="0.00" arrival="150.50" arrivalLane="1_4_2" arrivalPos="184.90" arrivalSpeed="12.42" duration="72.50" routeLength="378.82" waitingTime="14.00" waitingCount="2" stopTime="0.00" timeLoss="42.84" rerouteNo="0" devices="tripinfo_SE_27 ssm_SE_27" vType="cars" speedFactor="1.13" vaporized=""/>
    <tripinfo id="SN-bike.0" depart="15.00" departLane="3_1_3" departPos="1.70" departSpeed="0.00" departDelay="0.16" arrival="150.50" arrivalLane="1_5_1" arrivalPos="184.90" arrivalSpeed="5.82" duration="135.50" routeLength="398.52" waitingTime="60.50" waitingCount="1" stopTime="0.00" timeLoss="69.13" rerouteNo="0" devices="tripinfo_SN-bike.0 ssm_SN-bike.0" vType="bike" speedFactor="1.08" vaporized=""/>
    <tripinfo id="WS_6" depart="14.00" departLane="2_1_2" departPos="5.10" departSpeed="0.00" departDelay="0.00" arrival="158.00" arrivalLane="1_3_2" arrivalPos="184.90" arrivalSpeed="12.08" duration="144.00" routeLength="378.83" waitingTime="91.00" waitingCount="3" stopTime="0.00" timeLoss="113.73" rerouteNo="0" devices="tripinfo_WS_6 ssm_WS_6" vType="cars" speedFactor="0.89" vaporized=""/>
    <tripinfo id="SW_43" depart="122.00" departLane="3_1_4" departPos="5.10" departSpeed="0.00" departDelay="0.00" arrival="158.50" arrivalLane="1_2_3" arrivalPos="184.90" arrivalSpeed="12.76" duration="36.50" routeLength="390.20" waitingTime="0.00" waitingCount="0" stopTime="0.00" timeLoss="5.88" rerouteNo="0" devices="tripinfo_SW_43 ssm_SW_43" vType="cars" speedFactor="1.10" vaporized=""/>
    <tripinfo id="SN-bike.2" depart="37.50" departLane="3_1_1" departPos="1.70" departSpeed="0.00" departDelay="0.50" arrival="158.50" arrivalLane="1_5_1" arrivalPos="184.90" arrivalSpeed="5.48" duration="121.00" routeLength="398.52" waitingTime="36.00" waitingCount="1" stopTime="0.00" timeLoss="50.65" rerouteNo="0" devices="tripinfo_SN-bike.2 ssm_SN-bike.2" vType="bike" speedFactor="1.02" vaporized=""/>
    <tripinfo id="NW_21" depart="53.00" departLane="5_1_2" departPos="5.10" departSpeed="0.00" departDelay="0.00" arrival="159.00" arrivalLane="1_2_2" arrivalPos="184.90" arrivalSpeed="12.85" duration="106.00" routeLength="378.83" waitingTime="56.00" waitingCount="3" stopTime="0.00" timeLoss="75.10" rerouteNo="0" devices="tripinfo_NW_21 ssm_NW_21" vType="cars" speedFactor="0.79" vaporized=""/>
    <tripinfo id="WN-bike.0" depart="7.00" departLane="2_1_1" departPos="1.70" departSpeed="0.00" departDelay="0.26" arrival="161.00" arrivalLane="1_5_1" arrivalPos="184.90" arrivalSpeed="4.51" duration="154.00" routeLength="428.38" waitingTime="46.00" waitingCount="3" stopTime="0.00" timeLoss="64.36" rerouteNo="0" devices="tripinfo_WN-bike.0 ssm_WN-bike.0" vType="bike" speedFactor="0.86" vaporized=""/>
    <tripinfo id="SN-bike.1" depart="34.50" departLane="3_1_1" departPos="1.70" departSpeed="0.00" departDelay="0.65" arrival="162.00" arrivalLane="1_5_1" arrivalPos="184.90" arrivalSpeed="5.41" duration="127.50" routeLength="398.52" waitingTime="38.00" waitingCount="2" stopTime="0.00" timeLoss="55.79" rerouteNo="0" devices="tripinfo_SN-bike.1 ssm_SN-bike.1" vType="bike" speedFactor="1.00" vaporized=""/>
    <tripinfo id="SN-bike.3" depart="47.00" departLane="3_1_2" departPos="1.70" departSpeed="0.00" departDelay="0.34" arrival="162.50" arrivalLane="1_5_2" arrivalPos="184.90" arrivalSpeed="5.04" duration="115.50" routeLength="398.52" waitingTime="26.50" waitingCount="1" stopTime="0.00" timeLoss="40.54" rerouteNo="0" devices="tripinfo_SN-bike.3 ssm_SN-bike.3" vType="bike" speedFactor="0.96" vaporized=""/>
    <personinfo id="person_WE_s.0" depart="1.50" type="DEFAULT_PEDTYPE" speedFactor="0.98" duration="173.50" waitingTime="0.00" timeLoss="10.74" traveltime="173.50">
        <walk depart="1.50" departPos="100.00" arrival="175.00" arrivalPos="92.45" duration="173.50" routeLength="220.46" timeLoss="10.74" maxSpeed="1.35"/>
    </personinfo>
    <tripinfo id="EW_5" depart="76.00" departLane="4_1_3" departPos="5.10" departSpeed="0.00" departDelay="0.00" arrival="178.50" arrivalLane="1_2_2" arrivalPos="184.90" arrivalSpeed="12.87" duration="102.50" routeLength="395.12" waitingTime="60.00" waitingCount="1" stopTime="0.00" timeLoss="71.89" rerouteNo="0" devices="tripinfo_EW_5 ssm_EW_5" vType="cars" speedFactor="1.08" vaporized=""/>
    <tripinfo id="NE-bike.0" depart="59.00" departLane="5_1_4" departPos="1.70" departSpeed="0.00" departDelay="0.16" arrival="178.50" arrivalLane="1_4_1" arrivalPos="184.90" arrivalSpeed="5.69" duration="119.50" routeLength="393.60" waitingTime="43.50" waitingCount="1" stopTime="0.00" timeLoss="52.26" rerouteNo="0" devices="tripinfo_NE-bike.0 ssm_NE-bike.0" vType="bike" speedFactor="1.06" vaporized=""/>
    <tripinfo id="EW_7" depart="111.00" departLane="4_1_3" departPos="5.10" departSpeed="0.00" departDelay="0.00" arrival="179.50" arrivalLane="1_2_3" arrivalPos="184.90" arrivalSpeed="12.03" duration="68.50" routeLength="395.12" waitingTime="24.50" waitingCount="1" stopTime="0.00" timeLoss="37.78" rerouteNo="0" devices="tripinfo_EW_7 ssm_EW_7" vType="cars" speedFactor="0.99" vaporized=""/>
    <tripinfo id="EW_8" depart="123.00" departLane="4_1_3" departPos="5.10" departSpeed="0.00" departDelay="0.00" arrival="181.50" arrivalLane="1_2_3" arrivalPos="184.90" arrivalSpeed="12.68" duration="58.50" routeLength="395.12" waitingTime="11.50" waitingCount="1" stopTime="0.00" timeLoss="27.92" rerouteNo="0" devices="tripinfo_EW_8 ssm_EW_8" vType="cars" speedFactor="1.00" vaporized=""/>
    <tripinfo id="EW_10" depart="147.00" departLane="4_1_3" departPos="5.10" departSpeed="0.00" departDelay="3.00" arrival="183.50" arrivalLane="1_2_3" arrivalPos="184.90" arrivalSpeed="12.31" duration="36.50" routeLength="395.12" waitingTime="0.00" waitingCount="0" stopTime="0.00" timeLoss="6.01" rerouteNo="0" devices="tripinfo_EW_10 ssm_EW_10" vType="cars" speedFactor="1.04" vaporized=""/>
    <tripinfo id="EW_11" depart="150.50" departLane="4_1_3" departPos="5.10" departSpeed="0.00" departDelay="5.50" arrival="186.50" arrivalLane="1_2_3" arrivalPos="184.90" arrivalSpeed="12.61" duration="36.00" routeLength="395.12" waitingTime="0.00" waitingCount="0" stopTime="0.00" timeLoss="5.29" rerouteNo="0" devices="tripinfo_EW_11 ssm_EW_11" vType="cars" speedFactor="1.11" vaporized=""/>
    <tripinfo id="WE_6" depart="78.00" departLane="2_1_3" departPos="5.10" departSpeed="0.00" departDelay="1.00" arrival="188.00" arrivalLane="1_4_2" arrivalPos="184.90" arrivalSpeed="12.30" duration="110.00" routeLength="395.12" waitingTime="46.50" waitingCount="2" stopTime="0.00" timeLoss="79.57" rerouteNo="0" devices="tripinfo_WE_6 ssm_WE_6" vType="cars" speedFactor="1.11" vaporized=""/>