<?xml version="1.0" encoding="UTF-8"?>

<!-- generated on 2025-06-03 14:55:15 by Eclipse SUMO GUI Version 1.22.0
<sumoConfiguration xmlns:xsi="http://www.w3.org/2001/XMLSchema-instance" xsi:noNamespaceSchemaLocation="http://sumo.dlr.de/xsd/sumoConfiguration.xsd">

    <input>
        <net-file value="/home/naderian/Desktop/Shakiba/MMSVCC/environment/network_model/single_intersection_bike.net.xml"/>
        <route-files value="/home/naderian/Desktop/Shakiba/MMSVCC/environment/network_model/single_intersection.rou.xml"/>
        <additional-files value="/home/naderian/Desktop/Shakiba/MMSVCC/environment/network_model/single_intersection.add_actuated.xml"/>
    </input>

    <output>
        <queue-output value="/home/naderian/Desktop/Shakiba/MMSVCC/environment/simulation_data/single_intersection/queues_actuated_pene_100.xml"/>
        <tripinfo-output value="/home/naderian/Desktop/Shakiba/MMSVCC/environment/simulation_data/single_intersection/tripinfo_actuated_pene_100.xml"/>
    </output>

    <time>
        <begin value="0"/>
        <step-length value="0.5"/>
    </time>

    <processing>
        <waiting-time-memory value="1000"/>
    </processing>

    <report>
        <verbose value="true"/>
        <no-step-log value="true"/>
    </report>

    <ssm_device>
        <device.ssm.file value="/home/naderian/Desktop/Shakiba/MMSVCC/environment/simulation_data/single_intersection/SSMinfo_actuated_pene_100.xml"/>
    </ssm_device>

    <traci_server>
        <remote-port value="35765"/>
    </traci_server>

    <gui_only>
        <start value="true"/>
    </gui_only>

</sumoConfiguration>
-->

<tripinfos xmlns:xsi="http://www.w3.org/2001/XMLSchema-instance" xsi:noNamespaceSchemaLocation="http://sumo.dlr.de/xsd/tripinfo_file.xsd">
    <tripinfo id="SN_0" depart="0.00" departLane="3_1_3" departPos="5.10" departSpeed="0.00" departDelay="0.00" arrival="36.00" arrivalLane="1_5_2" arrivalPos="185.90" arrivalSpeed="12.37" duration="36.00" routeLength="395.14" waitingTime="0.00" waitingCount="0" stopTime="0.00" timeLoss="5.39" rerouteNo="0" devices="tripinfo_SN_0 ssm_SN_0" vType="cars" speedFactor="1.02" vaporized=""/>
    <tripinfo id="NS_1" depart="1.00" departLane="5_1_3" departPos="5.10" departSpeed="0.00" departDelay="0.00" arrival="37.00" arrivalLane="1_3_2" arrivalPos="185.90" arrivalSpeed="11.90" duration="36.00" routeLength="395.14" waitingTime="0.00" waitingCount="0" stopTime="0.00" timeLoss="5.43" rerouteNo="0" devices="tripinfo_NS_1 ssm_NS_1" vType="cars" speedFactor="1.01" vaporized=""/>
    <tripinfo id="SN_2" depart="5.00" departLane="3_1_3" departPos="5.10" departSpeed="0.00" departDelay="0.00" arrival="41.00" arrivalLane="1_5_2" arrivalPos="185.90" arrivalSpeed="11.83" duration="36.00" routeLength="395.14" waitingTime="0.00" waitingCount="0" stopTime="0.00" timeLoss="5.23" rerouteNo="0" devices="tripinfo_SN_2 ssm_SN_2" vType="cars" speedFactor="1.05" vaporized=""/>
    <tripinfo id="NS_5" depart="11.00" departLane="5_1_3" departPos="5.10" departSpeed="0.00" departDelay="0.00" arrival="46.50" arrivalLane="1_3_2" arrivalPos="185.90" arrivalSpeed="11.93" duration="35.50" routeLength="395.14" waitingTime="0.00" waitingCount="0" stopTime="0.00" timeLoss="4.90" rerouteNo="0" devices="tripinfo_NS_5 ssm_NS_5" vType="cars" speedFactor="0.91" vaporized=""/>
    <tripinfo id="SE_4" depart="9.00" departLane="3_1_2" departPos="5.10" departSpeed="0.00" departDelay="0.00" arrival="47.00" arrivalLane="1_4_2" arrivalPos="185.90" arrivalSpeed="12.14" duration="38.00" routeLength="379.23" waitingTime="0.00" waitingCount="0" stopTime="0.00" timeLoss="7.58" rerouteNo="0" devices="tripinfo_SE_4 ssm_SE_4" vType="cars" speedFactor="0.94" vaporized=""/>
    <tripinfo id="NS_8" depart="17.00" departLane="5_1_3" departPos="5.10" departSpeed="0.00" departDelay="0.00" arrival="53.50" arrivalLane="1_3_2" arrivalPos="185.90" arrivalSpeed="11.92" duration="36.50" routeLength="395.14" waitingTime="0.00" waitingCount="0" stopTime="0.00" timeLoss="5.98" rerouteNo="0" devices="tripinfo_NS_8 ssm_NS_8" vType="cars" speedFactor="0.95" vaporized=""/>
    <tripinfo id="SN_9" depart="18.00" departLane="3_1_3" departPos="5.10" departSpeed="0.00" departDelay="0.00" arrival="54.50" arrivalLane="1_5_2" arrivalPos="185.90" arrivalSpeed="12.89" duration="36.50" routeLength="395.14" waitingTime="0.00" waitingCount="0" stopTime="0.00" timeLoss="5.82" rerouteNo="0" devices="tripinfo_SN_9 ssm_SN_9" vType="cars" speedFactor="0.76" vaporized=""/>
    <tripinfo id="NS_11" depart="20.00" departLane="5_1_3" departPos="5.10" departSpeed="0.00" departDelay="0.00" arrival="55.50" arrivalLane="1_3_2" arrivalPos="185.90" arrivalSpeed="12.08" duration="35.50" routeLength="395.14" waitingTime="0.00" waitingCount="0" stopTime="0.00" timeLoss="4.98" rerouteNo="0" devices="tripinfo_NS_11 ssm_NS_11" vType="cars" speedFactor="1.01" vaporized=""/>
    <tripinfo id="EN_10" depart="22.50" departLane="4_1_2" departPos="5.10" departSpeed="0.00" departDelay="2.50" arrival="66.00" arrivalLane="1_5_2" arrivalPos="185.90" arrivalSpeed="11.83" duration="43.50" routeLength="379.23" waitingTime="3.50" waitingCount="1" stopTime="0.00" timeLoss="13.56" rerouteNo="0" devices="tripinfo_EN_10 ssm_EN_10" vType="cars" speedFactor="0.96" vaporized=""/>
    <tripinfo id="WE_0" depart="1.00" departLane="2_1_3" departPos="5.10" departSpeed="0.00" departDelay="0.00" arrival="85.00" arrivalLane="1_4_2" arrivalPos="185.90" arrivalSpeed="11.58" duration="84.00" routeLength="395.14" waitingTime="43.00" waitingCount="1" stopTime="0.00" timeLoss="53.61" rerouteNo="0" devices="tripinfo_WE_0 ssm_WE_0" vType="cars" speedFactor="1.12" vaporized=""/>
    <tripinfo id="EW_1" depart="42.00" departLane="4_1_3" departPos="5.10" departSpeed="0.00" departDelay="0.00" arrival="85.00" arrivalLane="1_2_3" arrivalPos="185.90" arrivalSpeed="11.68" duration="43.00" routeLength="395.14" waitingTime="2.50" waitingCount="1" stopTime="0.00" timeLoss="12.29" rerouteNo="0" devices="tripinfo_EW_1 ssm_EW_1" vType="cars" speedFactor="1.02" vaporized=""/>
    <tripinfo id="WE_1" depart="12.00" departLane="2_1_3" departPos="5.10" departSpeed="0.00" departDelay="0.00" arrival="86.00" arrivalLane="1_4_3" arrivalPos="185.90" arrivalSpeed="12.65" duration="74.00" routeLength="395.14" waitingTime="33.00" waitingCount="1" stopTime="0.00" timeLoss="43.29" rerouteNo="0" devices="tripinfo_WE_1 ssm_WE_1" vType="cars" speedFactor="1.30" vaporized=""/>
    <tripinfo id="EW_0" depart="22.00" departLane="4_1_3" departPos="5.10" departSpeed="0.00" departDelay="0.00" arrival="86.00" arrivalLane="1_2_2" arrivalPos="185.90" arrivalSpeed="12.87" duration="64.00" routeLength="395.14" waitingTime="23.00" waitingCount="1" stopTime="0.00" timeLoss="33.16" rerouteNo="0" devices="tripinfo_EW_0 ssm_EW_0" vType="cars" speedFactor="1.01" vaporized=""/>
    <tripinfo id="EW_2" depart="46.00" departLane="4_1_3" departPos="5.10" departSpeed="0.00" departDelay="0.00" arrival="87.50" arrivalLane="1_2_3" arrivalPos="185.90" arrivalSpeed="12.26" duration="41.50" routeLength="395.14" waitingTime="0.00" waitingCount="0" stopTime="0.00" timeLoss="10.68" rerouteNo="0" devices="tripinfo_EW_2 ssm_EW_2" vType="cars" speedFactor="1.18" vaporized=""/>
    <tripinfo id="WE_2" depart="22.00" departLane="2_1_3" departPos="5.10" departSpeed="0.00" departDelay="0.00" arrival="88.00" arrivalLane="1_4_2" arrivalPos="185.90" arrivalSpeed="12.35" duration="66.00" routeLength="395.14" waitingTime="21.00" waitingCount="1" stopTime="0.00" timeLoss="35.20" rerouteNo="0" devices="tripinfo_WE_2 ssm_WE_2" vType="cars" speedFactor="0.89" vaporized=""/>
    <tripinfo id="WE_3" depart="27.00" departLane="2_1_3" departPos="5.10" departSpeed="0.00" departDelay="0.00" arrival="90.50" arrivalLane="1_4_2" arrivalPos="185.90" arrivalSpeed="12.56" duration="63.50" routeLength="395.14" waitingTime="16.50" waitingCount="1" stopTime="0.00" timeLoss="33.03" rerouteNo="0" devices="tripinfo_WE_3 ssm_WE_3" vType="cars" speedFactor="1.06" vaporized=""/>
    <tripinfo id="WE_4" depart="50.00" departLane="2_1_3" departPos="5.10" departSpeed="0.00" departDelay="0.00" arrival="92.50" arrivalLane="1_4_2" arrivalPos="185.90" arrivalSpeed="11.57" duration="42.50" routeLength="395.14" waitingTime="0.00" waitingCount="0" stopTime="0.00" timeLoss="12.00" rerouteNo="0" devices="tripinfo_WE_4 ssm_WE_4" vType="cars" speedFactor="1.01" vaporized=""/>
    <tripinfo id="EW_3" depart="60.00" departLane="4_1_3" departPos="5.10" departSpeed="0.00" departDelay="1.00" arrival="95.50" arrivalLane="1_2_2" arrivalPos="185.90" arrivalSpeed="12.37" duration="35.50" routeLength="395.14" waitingTime="0.00" waitingCount="0" stopTime="0.00" timeLoss="4.64" rerouteNo="0" devices="tripinfo_EW_3 ssm_EW_3" vType="cars" speedFactor="0.98" vaporized=""/>
    <tripinfo id="EW_4" depart="63.00" departLane="4_1_3" departPos="5.10" departSpeed="0.00" departDelay="1.00" arrival="98.50" arrivalLane="1_2_3" arrivalPos="185.90" arrivalSpeed="12.42" duration="35.50" routeLength="395.14" waitingTime="0.00" waitingCount="0" stopTime="0.00" timeLoss="4.91" rerouteNo="0" devices="tripinfo_EW_4 ssm_EW_4" vType="cars" speedFactor="0.95" vaporized=""/>
    <tripinfo id="EW-bike.0" depart="9.00" departLane="4_1_2" departPos="1.70" departSpeed="0.00" departDelay="0.21" arrival="103.00" arrivalLane="1_2_1" arrivalPos="185.90" arrivalSpeed="6.12" duration="94.00" routeLength="398.54" waitingTime="21.00" waitingCount="1" stopTime="0.00" timeLoss="29.70" rerouteNo="0" devices="tripinfo_EW-bike.0 ssm_EW-bike.0" vType="bike" speedFactor="1.12" vaporized=""/>
    <tripinfo id="WE-bike.0" depart="1.50" departLane="2_1_2" departPos="1.70" departSpeed="0.00" departDelay="0.54" arrival="104.50" arrivalLane="1_4_1" arrivalPos="185.90" arrivalSpeed="5.95" duration="103.00" routeLength="398.54" waitingTime="28.00" waitingCount="1" stopTime="0.00" timeLoss="36.39" rerouteNo="0" devices="tripinfo_WE-bike.0 ssm_WE-bike.0" vType="bike" speedFactor="1.08" vaporized=""/>
    <tripinfo id="EW-bike.2" depart="37.50" departLane="4_1_3" departPos="1.70" departSpeed="0.00" departDelay="0.34" arrival="107.00" arrivalLane="1_2_2" arrivalPos="185.90" arrivalSpeed="6.08" duration="69.50" routeLength="398.54" waitingTime="0.00" waitingCount="0" stopTime="0.00" timeLoss="5.71" rerouteNo="0" devices="tripinfo_EW-bike.2 ssm_EW-bike.2" vType="bike" speedFactor="1.13" vaporized=""/>
    <tripinfo id="EW-bike.1" depart="18.50" departLane="4_1_2" departPos="1.70" departSpeed="0.00" departDelay="0.23" arrival="107.50" arrivalLane="1_2_1" arrivalPos="185.90" arrivalSpeed="5.63" duration="89.00" routeLength="398.54" waitingTime="8.50" waitingCount="1" stopTime="0.00" timeLoss="19.36" rerouteNo="0" devices="tripinfo_EW-bike.1 ssm_EW-bike.1" vType="bike" speedFactor="1.03" vaporized=""/>
    <tripinfo id="WE-bike.3" depart="37.50" departLane="2_1_1" departPos="1.70" departSpeed="0.00" departDelay="0.15" arrival="109.00" arrivalLane="1_4_1" arrivalPos="185.90" arrivalSpeed="6.24" duration="71.50" routeLength="398.54" waitingTime="0.00" waitingCount="0" stopTime="0.00" timeLoss="9.17" rerouteNo="0" devices="tripinfo_WE-bike.3 ssm_WE-bike.3" vType="bike" speedFactor="1.15" vaporized=""/>
    <tripinfo id="ES_24" depart="73.00" departLane="4_1_4" departPos="5.10" departSpeed="0.00" departDelay="0.00" arrival="113.50" arrivalLane="1_3_3" arrivalPos="185.90" arrivalSpeed="12.17" duration="40.50" routeLength="390.68" waitingTime="0.50" waitingCount="1" stopTime="0.00" timeLoss="10.06" rerouteNo="0" devices="tripinfo_ES_24 ssm_ES_24" vType="cars" speedFactor="1.05" vaporized=""/>
    <tripinfo id="WS-bike.0" depart="11.50" departLane="2_1_1" departPos="1.70" departSpeed="0.00" departDelay="0.20" arrival="113.50" arrivalLane="1_3_1" arrivalPos="185.90" arrivalSpeed="4.45" duration="102.00" routeLength="379.27" waitingTime="9.50" waitingCount="1" stopTime="0.00" timeLoss="20.18" rerouteNo="0" devices="tripinfo_WS-bike.0 ssm_WS-bike.0" vType="bike" speedFactor="0.84" vaporized=""/>
    <tripinfo id="WS_3" depart="7.00" departLane="2_1_2" departPos="5.10" departSpeed="0.00" departDelay="0.00" arrival="114.00" arrivalLane="1_3_2" arrivalPos="185.90" arrivalSpeed="12.57" duration="107.00" routeLength="379.23" waitingTime="59.00" waitingCount="3" stopTime="0.00" timeLoss="76.71" rerouteNo="0" devices="tripinfo_WS_3 ssm_WS_3" vType="cars" speedFactor="1.01" vaporized=""/>
    <tripinfo id="WN_7" depart="18.00" departLane="2_1_4" departPos="5.10" departSpeed="0.00" departDelay="2.00" arrival="114.00" arrivalLane="1_5_3" arrivalPos="185.90" arrivalSpeed="11.81" duration="96.00" routeLength="390.68" waitingTime="54.00" waitingCount="1" stopTime="0.00" timeLoss="65.27" rerouteNo="0" devices="tripinfo_WN_7 ssm_WN_7" vType="cars" speedFactor="0.93" vaporized=""/>
    <tripinfo id="WE-bike.1" depart="7.50" departLane="2_1_3" departPos="1.70" departSpeed="0.00" departDelay="0.18" arrival="114.50" arrivalLane="1_4_1" arrivalPos="185.90" arrivalSpeed="4.76" duration="107.00" routeLength="398.54" waitingTime="14.00" waitingCount="1" stopTime="0.00" timeLoss="23.84" rerouteNo="0" devices="tripinfo_WE-bike.1 ssm_WE-bike.1" vType="bike" speedFactor="0.86" vaporized=""/>
    <tripinfo id="WE-bike.2" depart="14.00" departLane="2_1_4" departPos="1.70" departSpeed="0.00" departDelay="0.06" arrival="116.00" arrivalLane="1_4_2" arrivalPos="185.90" arrivalSpeed="4.91" duration="102.00" routeLength="398.54" waitingTime="6.00" waitingCount="2" stopTime="0.00" timeLoss="22.44" rerouteNo="0" devices="tripinfo_WE-bike.2 ssm_WE-bike.2" vType="bike" speedFactor="0.90" vaporized=""/>
