<?xml version="1.0" encoding="UTF-8"?>

<!-- generated on 2025-06-22 17:29:28 by Eclipse SUMO GUI Version 1.22.0
<sumoConfiguration xmlns:xsi="http://www.w3.org/2001/XMLSchema-instance" xsi:noNamespaceSchemaLocation="http://sumo.dlr.de/xsd/sumoConfiguration.xsd">

    <input>
        <net-file value="/home/naderian/Desktop/Shakiba/MMSVCC/environment/network_model/single_intersection_pedestrian_X.net.xml"/>
        <route-files value="/home/naderian/Desktop/Shakiba/MMSVCC/environment/network_model/single_intersection.rou.xml"/>
        <additional-files value="/home/naderian/Desktop/Shakiba/MMSVCC/environment/network_model/single_intersection.add_actuated_(LPI).xml"/>
    </input>

    <output>
        <queue-output value="/home/naderian/Desktop/Shakiba/MMSVCC/environment/simulation_data/single_intersection/queues_actuated_asymmetric_pene_100.xml"/>
        <tripinfo-output value="/home/naderian/Desktop/Shakiba/MMSVCC/environment/simulation_data/single_intersection/tripinfo_actuated_asymmetric_pene_100.xml"/>
    </output>

    <time>
        <begin value="0"/>
        <step-length value="0.5"/>
    </time>

    <processing>
        <waiting-time-memory value="1000"/>
    </processing>

    <report>
        <verbose value="true"/>
        <no-step-log value="true"/>
    </report>

    <traci_server>
        <remote-port value="35339"/>
    </traci_server>

    <gui_only>
        <start value="true"/>
    </gui_only>

</sumoConfiguration>
-->

<tripinfos xmlns:xsi="http://www.w3.org/2001/XMLSchema-instance" xsi:noNamespaceSchemaLocation="http://sumo.dlr.de/xsd/tripinfo_file.xsd">
    <tripinfo id="NS_1" depart="1.00" departLane="5_1_2" departPos="5.10" departSpeed="0.00" departDelay="0.00" arrival="38.00" arrivalLane="1_3_1" arrivalPos="186.40" arrivalSpeed="12.22" duration="37.00" routeLength="395.15" waitingTime="0.00" waitingCount="0" stopTime="0.00" timeLoss="6.60" rerouteNo="0" devices="tripinfo_NS_1" vType="cars" speedFactor="1.01" vaporized=""/>
    <tripinfo id="SN_0" depart="0.00" departLane="3_1_2" departPos="5.10" departSpeed="0.00" departDelay="0.00" arrival="40.00" arrivalLane="1_5_1" arrivalPos="186.40" arrivalSpeed="11.82" duration="40.00" routeLength="395.15" waitingTime="0.00" waitingCount="0" stopTime="0.00" timeLoss="9.39" rerouteNo="0" devices="tripinfo_SN_0" vType="cars" speedFactor="1.02" vaporized=""/>
    <tripinfo id="SN_2" depart="5.00" departLane="3_1_2" departPos="5.10" departSpeed="0.00" departDelay="0.00" arrival="40.50" arrivalLane="1_5_2" arrivalPos="186.40" arrivalSpeed="11.73" duration="35.50" routeLength="395.15" waitingTime="0.00" waitingCount="0" stopTime="0.00" timeLoss="5.01" rerouteNo="0" devices="tripinfo_SN_2" vType="cars" speedFactor="1.05" vaporized=""/>
    <tripinfo id="NE_6" depart="20.00" departLane="5_1_3" departPos="5.10" departSpeed="0.00" departDelay="0.00" arrival="60.50" arrivalLane="1_4_2" arrivalPos="186.40" arrivalSpeed="12.93" duration="40.50" routeLength="392.22" waitingTime="0.00" waitingCount="0" stopTime="0.00" timeLoss="9.73" rerouteNo="0" devices="tripinfo_NE_6" vType="cars" speedFactor="0.95" vaporized=""/>
    <tripinfo id="EW_0" depart="32.00" departLane="4_1_2" departPos="5.10" departSpeed="0.00" departDelay="0.00" arrival="79.50" arrivalLane="1_2_1" arrivalPos="186.40" arrivalSpeed="12.75" duration="47.50" routeLength="395.15" waitingTime="7.50" waitingCount="1" stopTime="0.00" timeLoss="16.89" rerouteNo="0" devices="tripinfo_EW_0" vType="cars" speedFactor="0.93" vaporized=""/>
    <tripinfo id="WE_1" depart="10.00" departLane="2_1_2" departPos="5.10" departSpeed="0.00" departDelay="0.00" arrival="80.00" arrivalLane="1_4_2" arrivalPos="186.40" arrivalSpeed="12.38" duration="70.00" routeLength="395.15" waitingTime="29.50" waitingCount="1" stopTime="0.00" timeLoss="39.34" rerouteNo="0" devices="tripinfo_WE_1" vType="cars" speedFactor="0.94" vaporized=""/>
    <tripinfo id="EW_1" depart="37.00" departLane="4_1_2" departPos="5.10" departSpeed="0.00" departDelay="0.00" arrival="80.00" arrivalLane="1_2_2" arrivalPos="186.40" arrivalSpeed="12.76" duration="43.00" routeLength="395.15" waitingTime="2.50" waitingCount="1" stopTime="0.00" timeLoss="12.31" rerouteNo="0" devices="tripinfo_EW_1" vType="cars" speedFactor="1.10" vaporized=""/>
    <tripinfo id="WE_0" depart="1.00" departLane="2_1_2" departPos="5.10" departSpeed="0.00" departDelay="0.00" arrival="81.00" arrivalLane="1_4_1" arrivalPos="186.40" arrivalSpeed="12.69" duration="80.00" routeLength="395.15" waitingTime="39.00" waitingCount="1" stopTime="0.00" timeLoss="49.25" rerouteNo="0" devices="tripinfo_WE_0" vType="cars" speedFactor="1.12" vaporized=""/>
    <tripinfo id="EW_2" depart="42.00" departLane="4_1_2" departPos="5.10" departSpeed="0.00" departDelay="0.00" arrival="81.50" arrivalLane="1_2_1" arrivalPos="186.40" arrivalSpeed="11.59" duration="39.50" routeLength="395.15" waitingTime="0.00" waitingCount="0" stopTime="0.00" timeLoss="9.02" rerouteNo="0" devices="tripinfo_EW_2" vType="cars" speedFactor="1.02" vaporized=""/>
    <tripinfo id="WE_2" depart="12.50" departLane="2_1_2" departPos="5.10" departSpeed="0.00" departDelay="0.50" arrival="82.00" arrivalLane="1_4_2" arrivalPos="186.40" arrivalSpeed="11.83" duration="69.50" routeLength="395.15" waitingTime="25.00" waitingCount="1" stopTime="0.00" timeLoss="38.91" rerouteNo="0" devices="tripinfo_WE_2" vType="cars" speedFactor="0.91" vaporized=""/>
    <tripinfo id="EW_3" depart="46.00" departLane="4_1_2" departPos="5.10" departSpeed="0.00" departDelay="0.00" arrival="82.00" arrivalLane="1_2_2" arrivalPos="186.40" arrivalSpeed="11.70" duration="36.00" routeLength="395.15" waitingTime="0.00" waitingCount="0" stopTime="0.00" timeLoss="5.28" rerouteNo="0" devices="tripinfo_EW_3" vType="cars" speedFactor="1.18" vaporized=""/>
    <tripinfo id="WS_3" depart="7.00" departLane="2_1_1" departPos="5.10" departSpeed="0.00" departDelay="0.00" arrival="82.50" arrivalLane="1_3_1" arrivalPos="186.40" arrivalSpeed="12.78" duration="75.50" routeLength="379.43" waitingTime="31.00" waitingCount="1" stopTime="0.00" timeLoss="45.29" rerouteNo="0" devices="tripinfo_WS_3" vType="cars" speedFactor="1.01" vaporized=""/>
    <tripinfo id="WE_3" depart="19.00" departLane="2_1_2" departPos="5.10" departSpeed="0.00" departDelay="0.00" arrival="84.50" arrivalLane="1_4_1" arrivalPos="186.40" arrivalSpeed="11.56" duration="65.50" routeLength="395.15" waitingTime="21.50" waitingCount="1" stopTime="0.00" timeLoss="35.00" rerouteNo="0" devices="tripinfo_WE_3" vType="cars" speedFactor="0.93" vaporized=""/>
    <tripinfo id="WS_5" depart="16.00" departLane="2_1_1" departPos="5.10" departSpeed="0.00" departDelay="0.00" arrival="85.00" arrivalLane="1_3_1" arrivalPos="186.40" arrivalSpeed="12.97" duration="69.00" routeLength="379.43" waitingTime="23.50" waitingCount="1" stopTime="0.00" timeLoss="38.80" rerouteNo="0" devices="tripinfo_WS_5" vType="cars" speedFactor="0.89" vaporized=""/>
    <tripinfo id="WE_5" depart="29.00" departLane="2_1_2" departPos="5.10" departSpeed="0.00" departDelay="0.00" arrival="86.50" arrivalLane="1_4_2" arrivalPos="186.40" arrivalSpeed="12.64" duration="57.50" routeLength="395.15" waitingTime="11.50" waitingCount="1" stopTime="0.00" timeLoss="26.73" rerouteNo="0" devices="tripinfo_WE_5" vType="cars" speedFactor="1.01" vaporized=""/>
    <tripinfo id="WE_4" depart="26.00" departLane="2_1_2" departPos="5.10" departSpeed="0.00" departDelay="0.00" arrival="87.00" arrivalLane="1_4_1" arrivalPos="186.40" arrivalSpeed="11.68" duration="61.00" routeLength="395.15" waitingTime="15.00" waitingCount="1" stopTime="0.00" timeLoss="30.27" rerouteNo="0" devices="tripinfo_WE_4" vType="cars" speedFactor="1.01" vaporized=""/>
    <tripinfo id="WE_7" depart="50.00" departLane="2_1_2" departPos="5.10" departSpeed="0.00" departDelay="0.00" arrival="88.50" arrivalLane="1_4_2" arrivalPos="186.40" arrivalSpeed="12.27" duration="38.50" routeLength="395.15" waitingTime="0.00" waitingCount="0" stopTime="0.00" timeLoss="7.68" rerouteNo="0" devices="tripinfo_WE_7" vType="cars" speedFactor="1.01" vaporized=""/>
    <tripinfo id="WE_6" depart="31.50" departLane="2_1_2" departPos="5.10" departSpeed="0.00" departDelay="1.50" arrival="89.50" arrivalLane="1_4_1" arrivalPos="186.40" arrivalSpeed="12.78" duration="58.00" routeLength="395.15" waitingTime="9.50" waitingCount="1" stopTime="0.00" timeLoss="27.12" rerouteNo="0" devices="tripinfo_WE_6" vType="cars" speedFactor="0.95" vaporized=""/>
    <tripinfo id="ES_4" depart="14.00" departLane="4_1_3" departPos="5.10" departSpeed="0.00" departDelay="0.00" arrival="100.50" arrivalLane="1_3_2" arrivalPos="186.40" arrivalSpeed="12.31" duration="86.50" routeLength="392.22" waitingTime="45.00" waitingCount="1" stopTime="0.00" timeLoss="56.20" rerouteNo="0" devices="tripinfo_ES_4" vType="cars" speedFactor="1.30" vaporized=""/>
    <tripinfo id="SN_8" depart="25.00" departLane="3_1_2" departPos="5.10" departSpeed="0.00" departDelay="0.00" arrival="120.00" arrivalLane="1_5_1" arrivalPos="186.40" arrivalSpeed="12.13" duration="95.00" routeLength="395.15" waitingTime="55.50" waitingCount="1" stopTime="0.00" timeLoss="64.59" rerouteNo="0" devices="tripinfo_SN_8" vType="cars" speedFactor="0.96" vaporized=""/>
    <tripinfo id="NS_7" depart="22.00" departLane="5_1_2" departPos="5.10" departSpeed="0.00" departDelay="0.00" arrival="120.50" arrivalLane="1_3_1" arrivalPos="186.40" arrivalSpeed="12.56" duration="98.50" routeLength="395.15" waitingTime="57.50" waitingCount="1" stopTime="0.00" timeLoss="67.87" rerouteNo="0" devices="tripinfo_NS_7" vType="cars" speedFactor="0.76" vaporized=""/>
    <tripinfo id="NS_12" depart="34.00" departLane="5_1_2" departPos="5.10" departSpeed="0.00" departDelay="0.00" arrival="121.00" arrivalLane="1_3_1" arrivalPos="186.40" arrivalSpeed="12.80" duration="87.00" routeLength="395.15" waitingTime="44.50" waitingCount="1" stopTime="0.00" timeLoss="56.34" rerouteNo="0" devices="tripinfo_NS_12" vType="cars" speedFactor="0.85" vaporized=""/>
    <tripinfo id="SN_9" depart="27.50" departLane="3_1_2" departPos="5.10" departSpeed="0.00" departDelay="1.50" arrival="122.00" arrivalLane="1_5_1" arrivalPos="186.40" arrivalSpeed="11.84" duration="94.50" routeLength="395.15" waitingTime="52.00" waitingCount="1" stopTime="0.00" timeLoss="64.00" rerouteNo="0" devices="tripinfo_SN_9" vType="cars" speedFactor="0.89" vaporized=""/>
    <tripinfo id="NS_19" depart="66.00" departLane="5_1_2" departPos="5.10" departSpeed="0.00" departDelay="0.00" arrival="123.00" arrivalLane="1_3_2" arrivalPos="186.40" arrivalSpeed="11.76" duration="57.00" routeLength="395.15" waitingTime="11.50" waitingCount="1" stopTime="0.00" timeLoss="26.26" rerouteNo="0" devices="tripinfo_NS_19" vType="cars" speedFactor="0.93" vaporized=""/>
    <tripinfo id="SN_11" depart="32.50" departLane="3_1_2" departPos="5.10" departSpeed="0.00" departDelay="2.50" arrival="123.50" arrivalLane="1_5_2" arrivalPos="186.40" arrivalSpeed="11.55" duration="91.00" routeLength="395.15" waitingTime="45.00" waitingCount="1" stopTime="0.00" timeLoss="60.45" rerouteNo="0" devices="tripinfo_SN_11" vType="cars" speedFactor="1.06" vaporized=""/>
    <tripinfo id="SN_10" depart="30.00" departLane="3_1_2" departPos="5.10" departSpeed="0.00" departDelay="1.00" arrival="124.00" arrivalLane="1_5_1" arrivalPos="186.40" arrivalSpeed="11.72" duration="94.00" routeLength="395.15" waitingTime="48.50" waitingCount="1" stopTime="0.00" timeLoss="63.31" rerouteNo="0" devices="tripinfo_SN_10" vType="cars" speedFactor="0.83" vaporized=""/>
    <tripinfo id="NS_24" depart="84.00" departLane="5_1_2" departPos="5.10" departSpeed="0.00" departDelay="0.00" arrival="124.50" arrivalLane="1_3_1" arrivalPos="186.40" arrivalSpeed="11.69" duration="40.50" routeLength="395.15" waitingTime="0.00" waitingCount="0" stopTime="0.00" timeLoss="10.11" rerouteNo="0" devices="tripinfo_NS_24" vType="cars" speedFactor="1.09" vaporized=""/>
    <tripinfo id="SN_14" depart="38.00" departLane="3_1_2" departPos="5.10" departSpeed="0.00" departDelay="0.00" arrival="126.00" arrivalLane="1_5_2" arrivalPos="186.40" arrivalSpeed="12.92" duration="88.00" routeLength="395.15" waitingTime="40.50" waitingCount="1" stopTime="0.00" timeLoss="57.34" rerouteNo="0" devices="tripinfo_SN_14" vType="cars" speedFactor="0.96" vaporized=""/>
    <tripinfo id="SE_13" depart="36.00" departLane="3_1_1" departPos="5.10" departSpeed="0.00" departDelay="0.00" arrival="127.00" arrivalLane="1_4_1" arrivalPos="186.40" arrivalSpeed="12.03" duration="91.00" routeLength="379.42" waitingTime="44.00" waitingCount="1" stopTime="0.00" timeLoss="60.81" rerouteNo="0" devices="tripinfo_SE_13" vType="cars" speedFactor="1.12" vaporized=""/>
    <tripinfo id="NS_25" depart="92.00" departLane="5_1_2" departPos="5.10" departSpeed="0.00" departDelay="0.00" arrival="127.50" arrivalLane="1_3_1" arrivalPos="186.40" arrivalSpeed="12.78" duration="35.50" routeLength="395.15" waitingTime="0.00" waitingCount="0" stopTime="0.00" timeLoss="5.05" rerouteNo="0" devices="tripinfo_NS_25" vType="cars" speedFactor="0.88" vaporized=""/>
    <tripinfo id="SN_16" depart="41.00" departLane="3_1_2" departPos="5.10" departSpeed="0.00" departDelay="1.00" arrival="128.00" arrivalLane="1_5_1" arrivalPos="186.40" arrivalSpeed="12.81" duration="87.00" routeLength="395.15" waitingTime="39.00" waitingCount="2" stopTime="0.00" timeLoss="56.15" rerouteNo="0" devices="tripinfo_SN_16" vType="cars" speedFactor="0.84" vaporized=""/>
    <tripinfo id="SN_18" depart="60.00" departLane="3_1_2" departPos="5.10" departSpeed="0.00" departDelay="0.00" arrival="130.50" arrivalLane="1_5_1" arrivalPos="186.40" arrivalSpeed="11.58" duration="70.50" routeLength="395.15" waitingTime="22.50" waitingCount="1" stopTime="0.00" timeLoss="39.85" rerouteNo="0" devices="tripinfo_SN_18" vType="cars" speedFactor="0.98" vaporized=""/>
    <tripinfo id="NW_17" depart="53.00" departLane="5_1_1" departPos="5.10" departSpeed="0.00" departDelay="0.00" arrival="131.50" arrivalLane="1_2_1" arrivalPos="186.40" arrivalSpeed="12.67" duration="78.50" routeLength="379.43" waitingTime="30.50" waitingCount="2" stopTime="0.00" timeLoss="48.03" rerouteNo="0" devices="tripinfo_NW_17" vType="cars" speedFactor="0.79" vaporized=""/>
    <tripinfo id="SN_23" depart="83.00" departLane="3_1_2" departPos="5.10" departSpeed="0.00" departDelay="0.00" arrival="132.50" arrivalLane="1_5_1" arrivalPos="186.40" arrivalSpeed="12.48" duration="49.50" routeLength="395.15" waitingTime="0.00" waitingCount="0" stopTime="0.00" timeLoss="18.69" rerouteNo="0" devices="tripinfo_SN_23" vType="cars" speedFactor="1.11" vaporized=""/>
    <tripinfo id="NW_20" depart="69.00" departLane="5_1_1" departPos="5.10" departSpeed="0.00" departDelay="0.00" arrival="133.50" arrivalLane="1_2_1" arrivalPos="186.40" arrivalSpeed="12.03" duration="64.50" routeLength="379.43" waitingTime="14.00" waitingCount="2" stopTime="0.00" timeLoss="34.43" rerouteNo="0" devices="tripinfo_NW_20" vType="cars" speedFactor="1.06" vaporized=""/>
    <tripinfo id="SN_21" depart="75.00" departLane="3_1_2" departPos="5.10" departSpeed="0.00" departDelay="0.00" arrival="135.50" arrivalLane="1_5_2" arrivalPos="186.40" arrivalSpeed="12.00" duration="60.50" routeLength="395.15" waitingTime="1.50" waitingCount="1" stopTime="0.00" timeLoss="30.11" rerouteNo="0" devices="tripinfo_SN_21" vType="cars" speedFactor="1.05" vaporized=""/>
    <tripinfo id="SE_15" depart="39.00" departLane="3_1_1" departPos="5.10" departSpeed="0.00" departDelay="0.00" arrival="140.50" arrivalLane="1_4_1" arrivalPos="186.40" arrivalSpeed="12.75" duration="101.50" routeLength="379.42" waitingTime="49.50" waitingCount="2" stopTime="0.00" timeLoss="71.15" rerouteNo="0" devices="tripinfo_SE_15" vType="cars" speedFactor="0.92" vaporized=""/>
    <tripinfo id="WS_22" depart="79.00" departLane="2_1_1" departPos="5.10" departSpeed="0.00" departDelay="0.00" arrival="140.50" arrivalLane="1_3_1" arrivalPos="186.40" arrivalSpeed="12.68" duration="61.50" routeLength="379.43" waitingTime="21.00" waitingCount="1" stopTime="0.00" timeLoss="31.41" rerouteNo="0" devices="tripinfo_WS_22" vType="cars" speedFactor="1.02" vaporized=""/>
    <tripinfo id="EW_4" depart="62.00" departLane="4_1_2" departPos="5.10" departSpeed="0.00" departDelay="0.00" arrival="161.00" arrivalLane="1_2_1" arrivalPos="186.40" arrivalSpeed="12.62" duration="99.00" routeLength="395.15" waitingTime="58.00" waitingCount="1" stopTime="0.00" timeLoss="68.28" rerouteNo="0" devices="tripinfo_EW_4" vType="cars" speedFactor="0.95" vaporized=""/>
    <tripinfo id="EW_5" depart="82.00" departLane="4_1_2" departPos="5.10" departSpeed="0.00" departDelay="0.00" arrival="161.50" arrivalLane="1_2_1" arrivalPos="186.40" arrivalSpeed="12.16" duration="79.50" routeLength="395.15" waitingTime="38.00" waitingCount="1" stopTime="0.00" timeLoss="48.78" rerouteNo="0" devices="tripinfo_EW_5" vType="cars" speedFactor="1.04" vaporized=""/>
    <tripinfo id="WE_10" depart="85.50" departLane="2_1_2" departPos="5.10" departSpeed="0.00" departDelay="1.50" arrival="162.00" arrivalLane="1_4_1" arrivalPos="186.40" arrivalSpeed="12.26" duration="76.50" routeLength="395.15" waitingTime="29.00" waitingCount="2" stopTime="0.00" timeLoss="46.06" rerouteNo="0" devices="tripinfo_WE_10" vType="cars" speedFactor="1.13" vaporized=""/>
    <tripinfo id="WE_8" depart="78.00" departLane="2_1_2" departPos="5.10" departSpeed="0.00" departDelay="0.00" arrival="163.00" arrivalLane="1_4_2" arrivalPos="186.40" arrivalSpeed="12.00" duration="85.00" routeLength="395.15" waitingTime="41.50" waitingCount="1" stopTime="0.00" timeLoss="54.43" rerouteNo="0" devices="tripinfo_WE_8" vType="cars" speedFactor="1.01" vaporized=""/>
    <tripinfo id="EW_7" depart="96.00" departLane="4_1_2" departPos="5.10" departSpeed="0.00" departDelay="0.00" arrival="163.00" arrivalLane="1_2_1" arrivalPos="186.40" arrivalSpeed="12.71" duration="67.00" routeLength="395.15" waitingTime="21.50" waitingCount="1" stopTime="0.00" timeLoss="36.56" rerouteNo="0" devices="tripinfo_EW_7" vType="cars" speedFactor="0.98" vaporized=""/>
    <tripinfo id="EW_6" depart="91.00" departLane="4_1_2" departPos="5.10" departSpeed="0.00" departDelay="0.00" arrival="163.50" arrivalLane="1_2_2" arrivalPos="186.40" arrivalSpeed="12.85" duration="72.50" routeLength="395.15" waitingTime="29.00" waitingCount="1" stopTime="0.00" timeLoss="41.85" rerouteNo="0" devices="tripinfo_EW_6" vType="cars" speedFactor="1.00" vaporized=""/>
    <tripinfo id="WE_12" depart="98.00" departLane="2_1_2" departPos="5.10" departSpeed="0.00" departDelay="0.00" arrival="164.00" arrivalLane="1_4_1" arrivalPos="186.40" arrivalSpeed="12.29" duration="66.00" routeLength="395.15" waitingTime="13.00" waitingCount="2" stopTime="0.00" timeLoss="35.49" rerouteNo="0" devices="tripinfo_WE_12" vType="cars" speedFactor="0.83" vaporized=""/>
    <tripinfo id="WE_9" depart="83.00" departLane="2_1_2" departPos="5.10" departSpeed="0.00" departDelay="0.00" arrival="166.50" arrivalLane="1_4_2" arrivalPos="186.40" arrivalSpeed="12.05" duration="83.50" routeLength="395.15" waitingTime="37.00" waitingCount="1" stopTime="0.00" timeLoss="52.76" rerouteNo="0" devices="tripinfo_WE_9" vType="cars" speedFactor="1.08" vaporized=""/>
    <tripinfo id="EW_8" depart="99.50" departLane="4_1_2" departPos="5.10" departSpeed="0.00" departDelay="1.50" arrival="166.50" arrivalLane="1_2_2" arrivalPos="186.40" arrivalSpeed="11.78" duration="67.00" routeLength="395.15" waitingTime="20.00" waitingCount="1" stopTime="0.00" timeLoss="36.36" rerouteNo="0" devices="tripinfo_EW_8" vType="cars" speedFactor="0.96" vaporized=""/>
    <tripinfo id="WE_13" depart="121.00" departLane="2_1_2" departPos="5.10" departSpeed="0.00" departDelay="0.00" arrival="166.50" arrivalLane="1_4_1" arrivalPos="186.40" arrivalSpeed="12.40" duration="45.50" routeLength="395.15" waitingTime="0.00" waitingCount="0" stopTime="0.00" timeLoss="14.85" rerouteNo="0" devices="tripinfo_WE_13" vType="cars" speedFactor="1.05" vaporized=""/>
    <tripinfo id="WE_11" depart="88.00" departLane="2_1_2" departPos="5.10" departSpeed="0.00" departDelay="3.00" arrival="168.00" arrivalLane="1_4_2" arrivalPos="186.40" arrivalSpeed="12.27" duration="80.00" routeLength="395.15" waitingTime="32.00" waitingCount="2" stopTime="0.00" timeLoss="49.60" rerouteNo="0" devices="tripinfo_WE_11" vType="cars" speedFactor="1.05" vaporized=""/>
    <tripinfo id="EW_10" depart="112.00" departLane="4_1_2" departPos="5.10" departSpeed="0.00" departDelay="0.00" arrival="168.50" arrivalLane="1_2_2" arrivalPos="186.40" arrivalSpeed="12.44" duration="56.50" routeLength="395.15" waitingTime="9.00" waitingCount="1" stopTime="0.00" timeLoss="25.64" rerouteNo="0" devices="tripinfo_EW_10" vType="cars" speedFactor="1.12" vaporized=""/>
    <tripinfo id="WE_14" depart="123.50" departLane="2_1_2" departPos="5.10" departSpeed="0.00" departDelay="0.50" arrival="169.50" arrivalLane="1_4_1" arrivalPos="186.40" arrivalSpeed="11.63" duration="46.00" routeLength="395.15" waitingTime="0.00" waitingCount="0" stopTime="0.00" timeLoss="15.40" rerouteNo="0" devices="tripinfo_WE_14" vType="cars" speedFactor="1.04" vaporized=""/>
    <tripinfo id="EW_12" depart="119.00" departLane="4_1_2" departPos="5.10" departSpeed="0.00" departDelay="0.00" arrival="170.00" arrivalLane="1_2_2" arrivalPos="186.40" arrivalSpeed="12.09" duration="51.00" routeLength="395.15" waitingTime="3.50" waitingCount="1" stopTime="0.00" timeLoss="20.54" rerouteNo="0" devices="tripinfo_EW_12" vType="cars" speedFactor="0.99" vaporized=""/>
    <personinfo id="person_NS_w.3" depart="16.50" type="DEFAULT_PEDTYPE" speedFactor="1.23" duration="154.00" waitingTime="0.00" timeLoss="24.07" traveltime="154.00">
        <walk depart="16.50" departPos="100.00" arrival="170.50" arrivalPos="93.20" duration="154.00" routeLength="221.25" timeLoss="24.07" maxSpeed="1.70"/>
    </personinfo>
    <tripinfo id="EN_26" depart="99.00" departLane="4_1_1" departPos="5.10" departSpeed="0.00" departDelay="0.00" arrival="170.50" arrivalLane="1_5_1" arrivalPos="186.40" arrivalSpeed="12.41" duration="71.50" routeLength="379.42" waitingTime="23.50" waitingCount="2" stopTime="0.00" timeLoss="41.32" rerouteNo="0" devices="tripinfo_EN_26" vType="cars" speedFactor="0.97" vaporized=""/>
    <tripinfo id="WE_15" depart="132.00" departLane="2_1_2" departPos="5.10" departSpeed="0.00" departDelay="0.00" arrival="171.50" arrivalLane="1_4_1" arrivalPos="186.40" arrivalSpeed="11.99" duration="39.50" routeLength="395.15" waitingTime="0.00" waitingCount="0" stopTime="0.00" timeLoss="8.69" rerouteNo="0" devices="tripinfo_WE_15" vType="cars" speedFactor="1.10" vaporized=""/>
    <tripinfo id="WE_16" depart="135.00" departLane="2_1_2" departPos="5.10" departSpeed="0.00" departDelay="0.00" arrival="173.00" arrivalLane="1_4_2" arrivalPos="186.40" arrivalSpeed="11.81" duration="38.00" routeLength="395.15" waitingTime="0.00" waitingCount="0" stopTime="0.00" timeLoss="7.17" rerouteNo="0" devices="tripinfo_WE_16" vType="cars" speedFactor="1.09" vaporized=""/>
    <tripinfo id="EW_9" depart="108.00" departLane="4_1_2" departPos="5.10" departSpeed="0.00" departDelay="0.00" arrival="174.00" arrivalLane="1_2_1" arrivalPos="186.40" arrivalSpeed="12.68" duration="66.00" routeLength="395.15" waitingTime="15.00" waitingCount="2" stopTime="0.00" timeLoss="35.22" rerouteNo="0" devices="tripinfo_EW_9" vType="cars" speedFactor="0.91" vaporized=""/>
    <tripinfo id="EW_11" depart="115.00" departLane="4_1_2" departPos="5.10" departSpeed="0.00" departDelay="2.00" arrival="174.50" arrivalLane="1_2_2" arrivalPos="186.40" arrivalSpeed="12.86" duration="59.50" routeLength="395.15" waitingTime="6.00" waitingCount="2" stopTime="0.00" timeLoss="28.88" rerouteNo="0" devices="tripinfo_EW_11" vType="cars" speedFactor="0.98" vaporized=""/>
    <tripinfo id="WE_17" depart="138.50" departLane="2_1_2" departPos="5.10" departSpeed="0.00" departDelay="1.50" arrival="175.50" arrivalLane="1_4_2" arrivalPos="186.40" arrivalSpeed="11.72" duration="37.00" routeLength="395.15" waitingTime="0.00" waitingCount="0" stopTime="0.00" timeLoss="6.17" rerouteNo="0" devices="tripinfo_WE_17" vType="cars" speedFactor="0.98" vaporized=""/>
    <personinfo id="person_NS_w.5" depart="19.50" type="DEFAULT_PEDTYPE" speedFactor="1.12" duration="159.00" waitingTime="0.00" timeLoss="16.71" traveltime="159.00">
        <walk depart="19.50" departPos="100.00" arrival="178.50" arrivalPos="93.20" duration="159.00" routeLength="221.25" timeLoss="16.71" maxSpeed="1.55"/>
    </personinfo>
    <personinfo id="person_SN_e.1" depart="30.50" type="DEFAULT_PEDTYPE" speedFactor="1.14" duration="148.50" waitingTime="0.00" timeLoss="8.70" traveltime="148.50">
        <walk depart="30.50" departPos="100.00" arrival="179.00" arrivalPos="93.20" duration="148.50" routeLength="221.24" timeLoss="8.70" maxSpeed="1.58"/>
    </personinfo>
    <personinfo id="person_NS_w.2" depart="16.50" type="DEFAULT_PEDTYPE" speedFactor="1.03" duration="170.00" waitingTime="0.00" timeLoss="15.42" traveltime="170.00">
        <walk depart="16.50" departPos="100.00" arrival="186.50" arrivalPos="93.20" duration="170.00" routeLength="221.25" timeLoss="15.42" maxSpeed="1.43"/>
    </personinfo>
    <tripinfo id="EN_31" depart="117.00" departLane="4_1_1" departPos="5.10" departSpeed="0.00" departDelay="0.00" arrival="187.50" arrivalLane="1_5_1" arrivalPos="186.40" arrivalSpeed="12.79" duration="70.50" routeLength="379.42" waitingTime="13.00" waitingCount="2" stopTime="0.00" timeLoss="39.90" rerouteNo="0" devices="tripinfo_EN_31" vType="cars" speedFactor="0.86" vaporized=""/>
    <tripinfo id="SE_27" depart="101.00" departLane="3_1_1" departPos="5.10" departSpeed="0.00" departDelay="0.00" arrival="189.00" arrivalLane="1_4_1" arrivalPos="186.40" arrivalSpeed="11.87" duration="88.00" routeLength="379.42" waitingTime="47.50" waitingCount="1" stopTime="0.00" timeLoss="58.29" rerouteNo="0" devices="tripinfo_SE_27" vType="cars" speedFactor="1.14" vaporized=""/>
    <tripinfo id="ES_40" depart="135.00" departLane="4_1_3" departPos="5.10" departSpeed="0.00" departDelay="0.00" arrival="189.50" arrivalLane="1_3_2" arrivalPos="186.40" arrivalSpeed="12.75" duration="54.50" routeLength="392.22" waitingTime="14.00" waitingCount="1" stopTime="0.00" timeLoss="23.88" rerouteNo="0" devices="tripinfo_ES_40" vType="cars" speedFactor="0.99" vaporized=""/>
    <tripinfo id="WN_34" depart="123.00" departLane="2_1_3" departPos="5.10" departSpeed="0.00" departDelay="0.00" arrival="190.00" arrivalLane="1_5_2" arrivalPos="186.40" arrivalSpeed="12.76" duration="67.00" routeLength="392.22" waitingTime="25.00" waitingCount="1" stopTime="0.00" timeLoss="35.48" rerouteNo="0" devices="tripinfo_WN_34" vType="cars" speedFactor="0.84" vaporized=""/>
    <tripinfo id="WS_38" depart="133.00" departLane="2_1_1" departPos="5.10" departSpeed="0.00" departDelay="0.00" arrival="190.00" arrivalLane="1_3_1" arrivalPos="186.40" arrivalSpeed="11.82" duration="57.00" routeLength="379.43" waitingTime="15.00" waitingCount="2" stopTime="0.00" timeLoss="26.74" rerouteNo="0" devices="tripinfo_WS_38" vType="cars" speedFactor="1.00" vaporized=""/>
    <personinfo id="person_NS_w.0" depart="3.50" type="DEFAULT_PEDTYPE" speedFactor="0.96" duration="189.00" waitingTime="0.00" timeLoss="23.33" traveltime="189.00">
        <walk depart="3.50" departPos="100.00" arrival="192.50" arrivalPos="93.20" duration="189.00" routeLength="221.25" timeLoss="23.33" maxSpeed="1.34"/>
    </personinfo>
    <personinfo id="person_NS_w.1" depart="9.50" type="DEFAULT_PEDTYPE" speedFactor="0.96" duration="183.50" waitingTime="0.00" timeLoss="17.51" traveltime="183.50">
        <walk depart="9.50" departPos="100.00" arrival="193.00" arrivalPos="93.20" duration="183.50" routeLength="221.25" timeLoss="17.51" maxSpeed="1.33"/>
    </personinfo>
    <personinfo id="person_NS_w.4" depart="19.00" type="DEFAULT_PEDTYPE" speedFactor="0.98" duration="174.50" waitingTime="0.00" timeLoss="12.48" traveltime="174.50">
        <walk depart="19.00" departPos="100.00" arrival="193.50" arrivalPos="93.20" duration="174.50" routeLength="221.25" timeLoss="12.48" maxSpeed="1.37"/>
    </personinfo>
    <personinfo id="person_SN_e.0" depart="23.50" type="DEFAULT_PEDTYPE" speedFactor="0.93" duration="182.50" waitingTime="0.00" timeLoss="10.37" traveltime="182.50">
        <walk depart="23.50" departPos="100.00" arrival="206.00" arrivalPos="93.20" duration="182.50" routeLength="221.24" timeLoss="10.37" maxSpeed="1.29"/>
    </personinfo>
    <tripinfo id="SN_28" depart="105.00" departLane="3_1_2" departPos="5.10" departSpeed="0.00" departDelay="0.00" arrival="209.50" arrivalLane="1_5_2" arrivalPos="186.40" arrivalSpeed="12.51" duration="104.50" routeLength="395.15" waitingTime="63.00" waitingCount="1" stopTime="0.00" timeLoss="74.11" rerouteNo="0" devices="tripinfo_SN_28" vType="cars" speedFactor="1.25" vaporized=""/>
    <tripinfo id="NS_32" depart="118.00" departLane="5_1_2" departPos="5.10" departSpeed="0.00" departDelay="0.00" arrival="209.50" arrivalLane="1_3_2" arrivalPos="186.40" arrivalSpeed="12.35" duration="91.50" routeLength="395.15" waitingTime="50.00" waitingCount="1" stopTime="0.00" timeLoss="61.01" rerouteNo="0" devices="tripinfo_NS_32" vType="cars" speedFactor="1.12" vaporized=""/>
    <tripinfo id="SN_29" depart="109.00" departLane="3_1_2" departPos="5.10" departSpeed="0.00" departDelay="0.00" arrival="210.00" arrivalLane="1_5_1" arrivalPos="186.40" arrivalSpeed="11.82" duration="101.00" routeLength="395.15" waitingTime="55.00" waitingCount="2" stopTime="0.00" timeLoss="70.55" rerouteNo="0" devices="tripinfo_SN_29" vType="cars" speedFactor="0.99" vaporized=""/>