<?xml version="1.0" encoding="UTF-8"?>

<!-- generated on 2025-05-26 23:11:57 by Eclipse SUMO GUI Version 1.22.0
<sumoConfiguration xmlns:xsi="http://www.w3.org/2001/XMLSchema-instance" xsi:noNamespaceSchemaLocation="http://sumo.dlr.de/xsd/sumoConfiguration.xsd">

    <input>
        <net-file value="/home/naderian/Desktop/Shakiba/MMSVCC/environment/network_model/single_intersection_bike.net.xml"/>
        <route-files value="/home/naderian/Desktop/Shakiba/MMSVCC/environment/network_model/single_intersection.rou.xml"/>
        <additional-files value="/home/naderian/Desktop/Shakiba/MMSVCC/environment/network_model/single_intersection.add_actuated.xml"/>
    </input>

    <output>
        <queue-output value="/home/naderian/Desktop/Shakiba/MMSVCC/environment/simulation_data/single_intersection/queues_actuated_pene_100.xml"/>
        <tripinfo-output value="/home/naderian/Desktop/Shakiba/MMSVCC/environment/simulation_data/single_intersection/tripinfo_actuated_pene_100.xml"/>
    </output>

    <time>
        <begin value="0"/>
        <step-length value="0.5"/>
    </time>

    <processing>
        <waiting-time-memory value="1000"/>
    </processing>

    <report>
        <verbose value="true"/>
        <no-step-log value="true"/>
    </report>

    <ssm_device>
        <device.ssm.file value="/home/naderian/Desktop/Shakiba/MMSVCC/environment/simulation_data/single_intersection/SSMinfo_actuated_pene_100.xml"/>
    </ssm_device>

    <traci_server>
        <remote-port value="46607"/>
    </traci_server>

    <gui_only>
        <start value="true"/>
    </gui_only>

</sumoConfiguration>
-->

<tripinfos xmlns:xsi="http://www.w3.org/2001/XMLSchema-instance" xsi:noNamespaceSchemaLocation="http://sumo.dlr.de/xsd/tripinfo_file.xsd">
    <tripinfo id="SN_0" depart="0.00" departLane="3_1_3" departPos="5.10" departSpeed="0.00" departDelay="0.00" arrival="36.00" arrivalLane="1_5_2" arrivalPos="185.90" arrivalSpeed="12.37" duration="36.00" routeLength="395.14" waitingTime="0.00" waitingCount="0" stopTime="0.00" timeLoss="5.39" rerouteNo="0" devices="tripinfo_SN_0 ssm_SN_0" vType="cars" speedFactor="1.02" vaporized=""/>
    <tripinfo id="NS_1" depart="1.00" departLane="5_1_3" departPos="5.10" departSpeed="0.00" departDelay="0.00" arrival="37.00" arrivalLane="1_3_2" arrivalPos="185.90" arrivalSpeed="11.90" duration="36.00" routeLength="395.14" waitingTime="0.00" waitingCount="0" stopTime="0.00" timeLoss="5.43" rerouteNo="0" devices="tripinfo_NS_1 ssm_NS_1" vType="cars" speedFactor="1.01" vaporized=""/>
    <tripinfo id="SN_2" depart="5.00" departLane="3_1_3" departPos="5.10" departSpeed="0.00" departDelay="0.00" arrival="41.00" arrivalLane="1_5_2" arrivalPos="185.90" arrivalSpeed="11.83" duration="36.00" routeLength="395.14" waitingTime="0.00" waitingCount="0" stopTime="0.00" timeLoss="5.23" rerouteNo="0" devices="tripinfo_SN_2 ssm_SN_2" vType="cars" speedFactor="1.05" vaporized=""/>
    <tripinfo id="NS_5" depart="11.00" departLane="5_1_3" departPos="5.10" departSpeed="0.00" departDelay="0.00" arrival="46.50" arrivalLane="1_3_2" arrivalPos="185.90" arrivalSpeed="11.93" duration="35.50" routeLength="395.14" waitingTime="0.00" waitingCount="0" stopTime="0.00" timeLoss="4.90" rerouteNo="0" devices="tripinfo_NS_5 ssm_NS_5" vType="cars" speedFactor="0.91" vaporized=""/>
    <tripinfo id="SE_4" depart="9.00" departLane="3_1_2" departPos="5.10" departSpeed="0.00" departDelay="0.00" arrival="47.00" arrivalLane="1_4_2" arrivalPos="185.90" arrivalSpeed="12.14" duration="38.00" routeLength="379.23" waitingTime="0.00" waitingCount="0" stopTime="0.00" timeLoss="7.58" rerouteNo="0" devices="tripinfo_SE_4 ssm_SE_4" vType="cars" speedFactor="0.94" vaporized=""/>
    <tripinfo id="NS_8" depart="17.00" departLane="5_1_3" departPos="5.10" departSpeed="0.00" departDelay="0.00" arrival="53.50" arrivalLane="1_3_2" arrivalPos="185.90" arrivalSpeed="11.92" duration="36.50" routeLength="395.14" waitingTime="0.00" waitingCount="0" stopTime="0.00" timeLoss="5.98" rerouteNo="0" devices="tripinfo_NS_8 ssm_NS_8" vType="cars" speedFactor="0.95" vaporized=""/>
    <tripinfo id="SN_9" depart="18.00" departLane="3_1_3" departPos="5.10" departSpeed="0.00" departDelay="0.00" arrival="54.50" arrivalLane="1_5_2" arrivalPos="185.90" arrivalSpeed="12.89" duration="36.50" routeLength="395.14" waitingTime="0.00" waitingCount="0" stopTime="0.00" timeLoss="5.82" rerouteNo="0" devices="tripinfo_SN_9 ssm_SN_9" vType="cars" speedFactor="0.76" vaporized=""/>
    <tripinfo id="NS_11" depart="20.00" departLane="5_1_3" departPos="5.10" departSpeed="0.00" departDelay="0.00" arrival="55.50" arrivalLane="1_3_2" arrivalPos="185.90" arrivalSpeed="12.08" duration="35.50" routeLength="395.14" waitingTime="0.00" waitingCount="0" stopTime="0.00" timeLoss="4.98" rerouteNo="0" devices="tripinfo_NS_11 ssm_NS_11" vType="cars" speedFactor="1.01" vaporized=""/>
    <tripinfo id="EN_10" depart="22.50" departLane="4_1_2" departPos="5.10" departSpeed="0.00" departDelay="2.50" arrival="66.00" arrivalLane="1_5_2" arrivalPos="185.90" arrivalSpeed="11.83" duration="43.50" routeLength="379.23" waitingTime="3.50" waitingCount="1" stopTime="0.00" timeLoss="13.56" rerouteNo="0" devices="tripinfo_EN_10 ssm_EN_10" vType="cars" speedFactor="0.96" vaporized=""/>
    <tripinfo id="WE_0" depart="1.00" departLane="2_1_3" departPos="5.10" departSpeed="0.00" departDelay="0.00" arrival="85.00" arrivalLane="1_4_2" arrivalPos="185.90" arrivalSpeed="11.58" duration="84.00" routeLength="395.14" waitingTime="43.00" waitingCount="1" stopTime="0.00" timeLoss="53.61" rerouteNo="0" devices="tripinfo_WE_0 ssm_WE_0" vType="cars" speedFactor="1.12" vaporized=""/>
    <tripinfo id="EW_1" depart="42.00" departLane="4_1_3" departPos="5.10" departSpeed="0.00" departDelay="0.00" arrival="85.00" arrivalLane="1_2_3" arrivalPos="185.90" arrivalSpeed="11.68" duration="43.00" routeLength="395.14" waitingTime="2.50" waitingCount="1" stopTime="0.00" timeLoss="12.29" rerouteNo="0" devices="tripinfo_EW_1 ssm_EW_1" vType="cars" speedFactor="1.02" vaporized=""/>
    <tripinfo id="WE_1" depart="12.00" departLane="2_1_3" departPos="5.10" departSpeed="0.00" departDelay="0.00" arrival="86.00" arrivalLane="1_4_3" arrivalPos="185.90" arrivalSpeed="12.65" duration="74.00" routeLength="395.14" waitingTime="33.00" waitingCount="1" stopTime="0.00" timeLoss="43.29" rerouteNo="0" devices="tripinfo_WE_1 ssm_WE_1" vType="cars" speedFactor="1.30" vaporized=""/>
    <tripinfo id="EW_0" depart="22.00" departLane="4_1_3" departPos="5.10" departSpeed="0.00" departDelay="0.00" arrival="86.00" arrivalLane="1_2_2" arrivalPos="185.90" arrivalSpeed="12.87" duration="64.00" routeLength="395.14" waitingTime="23.00" waitingCount="1" stopTime="0.00" timeLoss="33.16" rerouteNo="0" devices="tripinfo_EW_0 ssm_EW_0" vType="cars" speedFactor="1.01" vaporized=""/>
    <tripinfo id="EW_2" depart="46.00" departLane="4_1_3" departPos="5.10" departSpeed="0.00" departDelay="0.00" arrival="87.50" arrivalLane="1_2_3" arrivalPos="185.90" arrivalSpeed="12.26" duration="41.50" routeLength="395.14" waitingTime="0.00" waitingCount="0" stopTime="0.00" timeLoss="10.68" rerouteNo="0" devices="tripinfo_EW_2 ssm_EW_2" vType="cars" speedFactor="1.18" vaporized=""/>
    <tripinfo id="WE_2" depart="22.00" departLane="2_1_3" departPos="5.10" departSpeed="0.00" departDelay="0.00" arrival="88.00" arrivalLane="1_4_2" arrivalPos="185.90" arrivalSpeed="12.35" duration="66.00" routeLength="395.14" waitingTime="21.00" waitingCount="1" stopTime="0.00" timeLoss="35.20" rerouteNo="0" devices="tripinfo_WE_2 ssm_WE_2" vType="cars" speedFactor="0.89" vaporized=""/>
    <tripinfo id="WE_3" depart="27.00" departLane="2_1_3" departPos="5.10" departSpeed="0.00" departDelay="0.00" arrival="90.50" arrivalLane="1_4_2" arrivalPos="185.90" arrivalSpeed="12.56" duration="63.50" routeLength="395.14" waitingTime="16.50" waitingCount="1" stopTime="0.00" timeLoss="33.03" rerouteNo="0" devices="tripinfo_WE_3 ssm_WE_3" vType="cars" speedFactor="1.06" vaporized=""/>
    <tripinfo id="WE_4" depart="50.00" departLane="2_1_3" departPos="5.10" departSpeed="0.00" departDelay="0.00" arrival="92.50" arrivalLane="1_4_2" arrivalPos="185.90" arrivalSpeed="11.57" duration="42.50" routeLength="395.14" waitingTime="0.00" waitingCount="0" stopTime="0.00" timeLoss="12.00" rerouteNo="0" devices="tripinfo_WE_4 ssm_WE_4" vType="cars" speedFactor="1.01" vaporized=""/>
    <tripinfo id="EW_3" depart="60.00" departLane="4_1_3" departPos="5.10" departSpeed="0.00" departDelay="1.00" arrival="95.50" arrivalLane="1_2_2" arrivalPos="185.90" arrivalSpeed="12.37" duration="35.50" routeLength="395.14" waitingTime="0.00" waitingCount="0" stopTime="0.00" timeLoss="4.64" rerouteNo="0" devices="tripinfo_EW_3 ssm_EW_3" vType="cars" speedFactor="0.98" vaporized=""/>
    <tripinfo id="EW_4" depart="63.00" departLane="4_1_3" departPos="5.10" departSpeed="0.00" departDelay="1.00" arrival="98.50" arrivalLane="1_2_3" arrivalPos="185.90" arrivalSpeed="12.42" duration="35.50" routeLength="395.14" waitingTime="0.00" waitingCount="0" stopTime="0.00" timeLoss="4.91" rerouteNo="0" devices="tripinfo_EW_4 ssm_EW_4" vType="cars" speedFactor="0.95" vaporized=""/>
    <tripinfo id="EW-bike.0" depart="9.00" departLane="4_1_2" departPos="1.70" departSpeed="0.00" departDelay="0.21" arrival="103.00" arrivalLane="1_2_1" arrivalPos="185.90" arrivalSpeed="6.12" duration="94.00" routeLength="398.54" waitingTime="21.00" waitingCount="1" stopTime="0.00" timeLoss="29.70" rerouteNo="0" devices="tripinfo_EW-bike.0 ssm_EW-bike.0" vType="bike" speedFactor="1.12" vaporized=""/>
    <tripinfo id="WE-bike.0" depart="1.50" departLane="2_1_2" departPos="1.70" departSpeed="0.00" departDelay="0.54" arrival="104.50" arrivalLane="1_4_1" arrivalPos="185.90" arrivalSpeed="5.95" duration="103.00" routeLength="398.54" waitingTime="28.00" waitingCount="1" stopTime="0.00" timeLoss="36.39" rerouteNo="0" devices="tripinfo_WE-bike.0 ssm_WE-bike.0" vType="bike" speedFactor="1.08" vaporized=""/>
    <tripinfo id="EW-bike.2" depart="37.50" departLane="4_1_3" departPos="1.70" departSpeed="0.00" departDelay="0.34" arrival="107.00" arrivalLane="1_2_2" arrivalPos="185.90" arrivalSpeed="6.08" duration="69.50" routeLength="398.54" waitingTime="0.00" waitingCount="0" stopTime="0.00" timeLoss="5.71" rerouteNo="0" devices="tripinfo_EW-bike.2 ssm_EW-bike.2" vType="bike" speedFactor="1.13" vaporized=""/>
    <tripinfo id="EW-bike.1" depart="18.50" departLane="4_1_2" departPos="1.70" departSpeed="0.00" departDelay="0.23" arrival="107.50" arrivalLane="1_2_1" arrivalPos="185.90" arrivalSpeed="5.63" duration="89.00" routeLength="398.54" waitingTime="8.50" waitingCount="1" stopTime="0.00" timeLoss="19.36" rerouteNo="0" devices="tripinfo_EW-bike.1 ssm_EW-bike.1" vType="bike" speedFactor="1.03" vaporized=""/>
    <tripinfo id="WE-bike.3" depart="37.50" departLane="2_1_1" departPos="1.70" departSpeed="0.00" departDelay="0.15" arrival="109.00" arrivalLane="1_4_1" arrivalPos="185.90" arrivalSpeed="6.24" duration="71.50" routeLength="398.54" waitingTime="0.00" waitingCount="0" stopTime="0.00" timeLoss="9.17" rerouteNo="0" devices="tripinfo_WE-bike.3 ssm_WE-bike.3" vType="bike" speedFactor="1.15" vaporized=""/>
    <tripinfo id="ES_24" depart="73.00" departLane="4_1_4" departPos="5.10" departSpeed="0.00" departDelay="0.00" arrival="113.50" arrivalLane="1_3_3" arrivalPos="185.90" arrivalSpeed="12.17" duration="40.50" routeLength="390.68" waitingTime="0.50" waitingCount="1" stopTime="0.00" timeLoss="10.06" rerouteNo="0" devices="tripinfo_ES_24 ssm_ES_24" vType="cars" speedFactor="1.05" vaporized=""/>
    <tripinfo id="WS-bike.0" depart="11.50" departLane="2_1_1" departPos="1.70" departSpeed="0.00" departDelay="0.20" arrival="113.50" arrivalLane="1_3_1" arrivalPos="185.90" arrivalSpeed="4.45" duration="102.00" routeLength="379.27" waitingTime="9.50" waitingCount="1" stopTime="0.00" timeLoss="20.18" rerouteNo="0" devices="tripinfo_WS-bike.0 ssm_WS-bike.0" vType="bike" speedFactor="0.84" vaporized=""/>
    <tripinfo id="WS_3" depart="7.00" departLane="2_1_2" departPos="5.10" departSpeed="0.00" departDelay="0.00" arrival="114.00" arrivalLane="1_3_2" arrivalPos="185.90" arrivalSpeed="12.57" duration="107.00" routeLength="379.23" waitingTime="59.00" waitingCount="3" stopTime="0.00" timeLoss="76.71" rerouteNo="0" devices="tripinfo_WS_3 ssm_WS_3" vType="cars" speedFactor="1.01" vaporized=""/>
    <tripinfo id="WN_7" depart="18.00" departLane="2_1_4" departPos="5.10" departSpeed="0.00" departDelay="2.00" arrival="114.00" arrivalLane="1_5_3" arrivalPos="185.90" arrivalSpeed="11.81" duration="96.00" routeLength="390.68" waitingTime="54.00" waitingCount="1" stopTime="0.00" timeLoss="65.27" rerouteNo="0" devices="tripinfo_WN_7 ssm_WN_7" vType="cars" speedFactor="0.93" vaporized=""/>
    <tripinfo id="WE-bike.1" depart="7.50" departLane="2_1_3" departPos="1.70" departSpeed="0.00" departDelay="0.18" arrival="114.50" arrivalLane="1_4_1" arrivalPos="185.90" arrivalSpeed="4.76" duration="107.00" routeLength="398.54" waitingTime="14.00" waitingCount="1" stopTime="0.00" timeLoss="23.84" rerouteNo="0" devices="tripinfo_WE-bike.1 ssm_WE-bike.1" vType="bike" speedFactor="0.86" vaporized=""/>
    <tripinfo id="WE-bike.2" depart="14.00" departLane="2_1_4" departPos="1.70" departSpeed="0.00" departDelay="0.06" arrival="116.00" arrivalLane="1_4_2" arrivalPos="185.90" arrivalSpeed="4.91" duration="102.00" routeLength="398.54" waitingTime="6.00" waitingCount="2" stopTime="0.00" timeLoss="22.44" rerouteNo="0" devices="tripinfo_WE-bike.2 ssm_WE-bike.2" vType="bike" speedFactor="0.90" vaporized=""/>
    <tripinfo id="SN_12" depart="25.00" departLane="3_1_3" departPos="5.10" departSpeed="0.00" departDelay="0.00" arrival="131.00" arrivalLane="1_5_2" arrivalPos="185.90" arrivalSpeed="12.29" duration="106.00" routeLength="395.14" waitingTime="64.50" waitingCount="1" stopTime="0.00" timeLoss="75.32" rerouteNo="0" devices="tripinfo_SN_12 ssm_SN_12" vType="cars" speedFactor="0.83" vaporized=""/>
    <tripinfo id="NS_14" depart="28.50" departLane="5_1_3" departPos="5.10" departSpeed="0.00" departDelay="1.50" arrival="131.50" arrivalLane="1_3_3" arrivalPos="185.90" arrivalSpeed="12.81" duration="103.00" routeLength="395.14" waitingTime="62.00" waitingCount="1" stopTime="0.00" timeLoss="72.22" rerouteNo="0" devices="tripinfo_NS_14 ssm_NS_14" vType="cars" speedFactor="0.93" vaporized=""/>
    <tripinfo id="SN_15" depart="29.00" departLane="3_1_3" departPos="5.10" departSpeed="0.00" departDelay="0.00" arrival="131.50" arrivalLane="1_5_2" arrivalPos="185.90" arrivalSpeed="12.26" duration="102.50" routeLength="395.14" waitingTime="62.00" waitingCount="1" stopTime="0.00" timeLoss="72.04" rerouteNo="0" devices="tripinfo_SN_15 ssm_SN_15" vType="cars" speedFactor="0.85" vaporized=""/>
    <tripinfo id="NS_13" depart="26.00" departLane="5_1_3" departPos="5.10" departSpeed="0.00" departDelay="0.00" arrival="132.00" arrivalLane="1_3_2" arrivalPos="185.90" arrivalSpeed="11.72" duration="106.00" routeLength="395.14" waitingTime="64.00" waitingCount="1" stopTime="0.00" timeLoss="75.57" rerouteNo="0" devices="tripinfo_NS_13 ssm_NS_13" vType="cars" speedFactor="0.95" vaporized=""/>
    <tripinfo id="NW-bike.0" depart="71.50" departLane="5_1_1" departPos="1.70" departSpeed="0.00" departDelay="0.46" arrival="133.00" arrivalLane="1_2_1" arrivalPos="185.90" arrivalSpeed="6.65" duration="61.50" routeLength="379.28" waitingTime="0.00" waitingCount="0" stopTime="0.00" timeLoss="5.30" rerouteNo="0" devices="tripinfo_NW-bike.0 ssm_NW-bike.0" vType="bike" speedFactor="1.22" vaporized=""/>
    <tripinfo id="NS_22" depart="66.00" departLane="5_1_3" departPos="5.10" departSpeed="0.00" departDelay="0.00" arrival="133.50" arrivalLane="1_3_3" arrivalPos="185.90" arrivalSpeed="12.11" duration="67.50" routeLength="395.14" waitingTime="23.00" waitingCount="1" stopTime="0.00" timeLoss="37.10" rerouteNo="0" devices="tripinfo_NS_22 ssm_NS_22" vType="cars" speedFactor="0.93" vaporized=""/>
    <tripinfo id="WS-bike.1" depart="56.00" departLane="2_1_2" departPos="1.70" departSpeed="0.00" departDelay="0.37" arrival="133.50" arrivalLane="1_3_1" arrivalPos="185.90" arrivalSpeed="5.34" duration="77.50" routeLength="379.27" waitingTime="1.00" waitingCount="1" stopTime="0.00" timeLoss="9.09" rerouteNo="0" devices="tripinfo_WS-bike.1 ssm_WS-bike.1" vType="bike" speedFactor="1.00" vaporized=""/>
    <tripinfo id="NS_16" depart="31.00" departLane="5_1_3" departPos="5.10" departSpeed="0.00" departDelay="1.00" arrival="134.00" arrivalLane="1_3_2" arrivalPos="185.90" arrivalSpeed="12.53" duration="103.00" routeLength="395.14" waitingTime="57.50" waitingCount="1" stopTime="0.00" timeLoss="72.49" rerouteNo="0" devices="tripinfo_NS_16 ssm_NS_16" vType="cars" speedFactor="1.12" vaporized=""/>
    <tripinfo id="SN_17" depart="33.00" departLane="3_1_3" departPos="5.10" departSpeed="0.00" departDelay="0.00" arrival="134.00" arrivalLane="1_5_2" arrivalPos="185.90" arrivalSpeed="12.60" duration="101.00" routeLength="395.14" waitingTime="55.50" waitingCount="1" stopTime="0.00" timeLoss="70.16" rerouteNo="0" devices="tripinfo_SN_17 ssm_SN_17" vType="cars" speedFactor="1.10" vaporized=""/>
    <tripinfo id="SN_18" depart="36.00" departLane="3_1_3" departPos="5.10" departSpeed="0.00" departDelay="0.00" arrival="136.00" arrivalLane="1_5_2" arrivalPos="185.90" arrivalSpeed="12.90" duration="100.00" routeLength="395.14" waitingTime="53.50" waitingCount="1" stopTime="0.00" timeLoss="69.14" rerouteNo="0" devices="tripinfo_SN_18 ssm_SN_18" vType="cars" speedFactor="0.96" vaporized=""/>
    <tripinfo id="NS_26" depart="75.00" departLane="5_1_3" departPos="5.10" departSpeed="0.00" departDelay="0.00" arrival="136.00" arrivalLane="1_3_3" arrivalPos="185.90" arrivalSpeed="11.69" duration="61.00" routeLength="395.14" waitingTime="15.00" waitingCount="1" stopTime="0.00" timeLoss="30.29" rerouteNo="0" devices="tripinfo_NS_26 ssm_NS_26" vType="cars" speedFactor="1.04" vaporized=""/>
    <tripinfo id="SN_25" depart="74.00" departLane="3_1_3" departPos="5.10" departSpeed="0.00" departDelay="0.00" arrival="137.50" arrivalLane="1_5_2" arrivalPos="185.90" arrivalSpeed="11.53" duration="63.50" routeLength="395.14" waitingTime="18.00" waitingCount="1" stopTime="0.00" timeLoss="33.09" rerouteNo="0" devices="tripinfo_SN_25 ssm_SN_25" vType="cars" speedFactor="1.01" vaporized=""/>
    <tripinfo id="NS_29" depart="83.00" departLane="5_1_3" departPos="5.10" departSpeed="0.00" departDelay="0.00" arrival="137.50" arrivalLane="1_3_3" arrivalPos="185.90" arrivalSpeed="11.62" duration="54.50" routeLength="395.14" waitingTime="8.50" waitingCount="1" stopTime="0.00" timeLoss="24.07" rerouteNo="0" devices="tripinfo_NS_29 ssm_NS_29" vType="cars" speedFactor="1.05" vaporized=""/>
    <tripinfo id="NS_32" depart="87.00" departLane="5_1_3" departPos="5.10" departSpeed="0.00" departDelay="0.00" arrival="139.00" arrivalLane="1_3_2" arrivalPos="185.90" arrivalSpeed="12.47" duration="52.00" routeLength="395.14" waitingTime="4.50" waitingCount="1" stopTime="0.00" timeLoss="21.51" rerouteNo="0" devices="tripinfo_NS_32 ssm_NS_32" vType="cars" speedFactor="0.98" vaporized=""/>
    <tripinfo id="WS-bike.2" depart="58.00" departLane="2_1_1" departPos="1.70" departSpeed="0.00" departDelay="0.28" arrival="139.00" arrivalLane="1_3_1" arrivalPos="185.90" arrivalSpeed="4.89" duration="81.00" routeLength="379.27" waitingTime="0.00" waitingCount="0" stopTime="0.00" timeLoss="5.03" rerouteNo="0" devices="tripinfo_WS-bike.2 ssm_WS-bike.2" vType="bike" speedFactor="0.90" vaporized=""/>
    <tripinfo id="SN_28" depart="81.00" departLane="3_1_3" departPos="5.10" departSpeed="0.00" departDelay="0.00" arrival="139.50" arrivalLane="1_5_2" arrivalPos="185.90" arrivalSpeed="12.07" duration="58.50" routeLength="395.14" waitingTime="11.00" waitingCount="2" stopTime="0.00" timeLoss="27.85" rerouteNo="0" devices="tripinfo_SN_28 ssm_SN_28" vType="cars" speedFactor="1.09" vaporized=""/>
    <tripinfo id="SN_31" depart="87.50" departLane="3_1_3" departPos="5.10" departSpeed="0.00" departDelay="3.50" arrival="141.00" arrivalLane="1_5_2" arrivalPos="185.90" arrivalSpeed="12.68" duration="53.50" routeLength="395.14" waitingTime="6.00" waitingCount="1" stopTime="0.00" timeLoss="23.04" rerouteNo="0" devices="tripinfo_SN_31 ssm_SN_31" vType="cars" speedFactor="0.88" vaporized=""/>
    <tripinfo id="NS_37" depart="105.00" departLane="5_1_3" departPos="5.10" departSpeed="0.00" departDelay="0.00" arrival="142.00" arrivalLane="1_3_2" arrivalPos="185.90" arrivalSpeed="11.71" duration="37.00" routeLength="395.14" waitingTime="0.00" waitingCount="0" stopTime="0.00" timeLoss="6.53" rerouteNo="0" devices="tripinfo_NS_37 ssm_NS_37" vType="cars" speedFactor="0.95" vaporized=""/>
    <tripinfo id="SN_34" depart="97.00" departLane="3_1_3" departPos="5.10" departSpeed="0.00" departDelay="0.00" arrival="143.00" arrivalLane="1_5_3" arrivalPos="185.90" arrivalSpeed="12.45" duration="46.00" routeLength="395.14" waitingTime="0.00" waitingCount="0" stopTime="0.00" timeLoss="15.30" rerouteNo="0" devices="tripinfo_SN_34 ssm_SN_34" vType="cars" speedFactor="1.25" vaporized=""/>
    <tripinfo id="SN_33" depart="90.50" departLane="3_1_3" departPos="5.10" departSpeed="0.00" departDelay="0.50" arrival="146.00" arrivalLane="1_5_3" arrivalPos="185.90" arrivalSpeed="12.69" duration="55.50" routeLength="395.14" waitingTime="3.50" waitingCount="1" stopTime="0.00" timeLoss="24.74" rerouteNo="0" devices="tripinfo_SN_33 ssm_SN_33" vType="cars" speedFactor="0.96" vaporized=""/>
    <tripinfo id="NS_41" depart="111.00" departLane="5_1_3" departPos="5.10" departSpeed="0.00" departDelay="0.00" arrival="147.00" arrivalLane="1_3_2" arrivalPos="185.90" arrivalSpeed="11.99" duration="36.00" routeLength="395.14" waitingTime="0.00" waitingCount="0" stopTime="0.00" timeLoss="5.56" rerouteNo="0" devices="tripinfo_NS_41 ssm_NS_41" vType="cars" speedFactor="1.05" vaporized=""/>
    <tripinfo id="SN_40" depart="110.00" departLane="3_1_3" departPos="5.10" departSpeed="0.00" departDelay="0.00" arrival="147.50" arrivalLane="1_5_2" arrivalPos="185.90" arrivalSpeed="11.66" duration="37.50" routeLength="395.14" waitingTime="0.00" waitingCount="0" stopTime="0.00" timeLoss="7.00" rerouteNo="0" devices="tripinfo_SN_40 ssm_SN_40" vType="cars" speedFactor="1.12" vaporized=""/>
    <tripinfo id="SE_19" depart="39.00" departLane="3_1_2" departPos="5.10" departSpeed="0.00" departDelay="0.00" arrival="150.00" arrivalLane="1_4_2" arrivalPos="185.90" arrivalSpeed="12.75" duration="111.00" routeLength="379.23" waitingTime="65.00" waitingCount="2" stopTime="0.00" timeLoss="80.68" rerouteNo="0" devices="tripinfo_SE_19 ssm_SE_19" vType="cars" speedFactor="0.92" vaporized=""/>
    <tripinfo id="SN-bike.1" depart="21.50" departLane="3_1_4" departPos="1.70" departSpeed="0.00" departDelay="0.02" arrival="150.50" arrivalLane="1_5_1" arrivalPos="185.90" arrivalSpeed="5.87" duration="129.00" routeLength="398.54" waitingTime="54.00" waitingCount="1" stopTime="0.00" timeLoss="62.54" rerouteNo="0" devices="tripinfo_SN-bike.1 ssm_SN-bike.1" vType="bike" speedFactor="1.08" vaporized=""/>
    <tripinfo id="SN-bike.2" depart="40.50" departLane="3_1_1" departPos="1.70" departSpeed="0.00" departDelay="0.00" arrival="153.50" arrivalLane="1_5_1" arrivalPos="185.90" arrivalSpeed="6.06" duration="113.00" routeLength="398.54" waitingTime="35.50" waitingCount="1" stopTime="0.00" timeLoss="48.74" rerouteNo="0" devices="tripinfo_SN-bike.2 ssm_SN-bike.2" vType="bike" speedFactor="1.12" vaporized=""/>
    <tripinfo id="WS_6" depart="14.00" departLane="2_1_2" departPos="5.10" departSpeed="0.00" departDelay="0.00" arrival="158.00" arrivalLane="1_3_2" arrivalPos="185.90" arrivalSpeed="12.59" duration="144.00" routeLength="379.23" waitingTime="90.00" waitingCount="3" stopTime="0.00" timeLoss="113.51" rerouteNo="0" devices="tripinfo_WS_6 ssm_WS_6" vType="cars" speedFactor="0.89" vaporized=""/>
    <tripinfo id="SW_43" depart="122.00" departLane="3_1_4" departPos="5.10" departSpeed="0.00" departDelay="0.00" arrival="158.00" arrivalLane="1_2_3" arrivalPos="185.90" arrivalSpeed="11.55" duration="36.00" routeLength="390.68" waitingTime="0.00" waitingCount="0" stopTime="0.00" timeLoss="5.64" rerouteNo="0" devices="tripinfo_SW_43 ssm_SW_43" vType="cars" speedFactor="1.10" vaporized=""/>
    <tripinfo id="NS-bike.0" depart="77.50" departLane="5_1_3" departPos="1.70" departSpeed="0.00" departDelay="0.24" arrival="160.00" arrivalLane="1_3_1" arrivalPos="185.90" arrivalSpeed="4.89" duration="82.50" routeLength="398.54" waitingTime="0.00" waitingCount="0" stopTime="0.00" timeLoss="4.64" rerouteNo="0" devices="tripinfo_NS-bike.0 ssm_NS-bike.0" vType="bike" speedFactor="0.92" vaporized=""/>
    <tripinfo id="NW_21" depart="53.00" departLane="5_1_2" departPos="5.10" departSpeed="0.00" departDelay="0.00" arrival="161.00" arrivalLane="1_2_2" arrivalPos="185.90" arrivalSpeed="12.48" duration="108.00" routeLength="379.23" waitingTime="55.00" waitingCount="4" stopTime="0.00" timeLoss="77.59" rerouteNo="0" devices="tripinfo_NW_21 ssm_NW_21" vType="cars" speedFactor="0.79" vaporized=""/>
    <tripinfo id="SN-bike.0" depart="15.00" departLane="3_1_2" departPos="1.70" departSpeed="0.00" departDelay="0.16" arrival="161.50" arrivalLane="1_5_1" arrivalPos="185.90" arrivalSpeed="4.48" duration="146.50" routeLength="398.54" waitingTime="52.00" waitingCount="1" stopTime="0.00" timeLoss="62.15" rerouteNo="0" devices="tripinfo_SN-bike.0 ssm_SN-bike.0" vType="bike" speedFactor="0.85" vaporized=""/>
    <personinfo id="person_WE_s.0" depart="1.50" type="DEFAULT_PEDTYPE" speedFactor="0.98" duration="173.50" waitingTime="0.00" timeLoss="10.47" traveltime="173.50">
        <walk depart="1.50" departPos="100.00" arrival="175.00" arrivalPos="92.95" duration="173.50" routeLength="220.81" timeLoss="10.47" maxSpeed="1.35"/>
    </personinfo>
    <tripinfo id="EW_5" depart="76.00" departLane="4_1_3" departPos="5.10" departSpeed="0.00" departDelay="0.00" arrival="177.00" arrivalLane="1_2_2" arrivalPos="185.90" arrivalSpeed="11.63" duration="101.00" routeLength="395.14" waitingTime="60.50" waitingCount="1" stopTime="0.00" timeLoss="70.61" rerouteNo="0" devices="tripinfo_EW_5 ssm_EW_5" vType="cars" speedFactor="1.08" vaporized=""/>
    <tripinfo id="WE_5" depart="75.00" departLane="2_1_3" departPos="5.10" departSpeed="0.00" departDelay="0.00" arrival="177.50" arrivalLane="1_4_3" arrivalPos="185.90" arrivalSpeed="12.09" duration="102.50" routeLength="395.14" waitingTime="61.50" waitingCount="1" stopTime="0.00" timeLoss="72.04" rerouteNo="0" devices="tripinfo_WE_5 ssm_WE_5" vType="cars" speedFactor="1.02" vaporized=""/>
    <tripinfo id="WE_7" depart="89.00" departLane="2_1_3" departPos="5.10" departSpeed="0.00" departDelay="0.00" arrival="177.50" arrivalLane="1_4_2" arrivalPos="185.90" arrivalSpeed="12.39" duration="88.50" routeLength="395.14" waitingTime="41.00" waitingCount="2" stopTime="0.00" timeLoss="57.89" rerouteNo="0" devices="tripinfo_WE_7 ssm_WE_7" vType="cars" speedFactor="0.83" vaporized=""/>
    <tripinfo id="WE_6" depart="78.00" departLane="2_1_3" departPos="5.10" departSpeed="0.00" departDelay="1.00" arrival="179.50" arrivalLane="1_4_3" arrivalPos="185.90" arrivalSpeed="11.83" duration="101.50" routeLength="395.14" waitingTime="57.50" waitingCount="1" stopTime="0.00" timeLoss="70.87" rerouteNo="0" devices="tripinfo_WE_6 ssm_WE_6" vType="cars" speedFactor="1.11" vaporized=""/>
    <tripinfo id="EW_6" depart="92.00" departLane="4_1_3" departPos="5.10" departSpeed="0.00" departDelay="0.00" arrival="180.50" arrivalLane="1_2_2" arrivalPos="185.90" arrivalSpeed="12.24" duration="88.50" routeLength="395.14" waitingTime="42.50" waitingCount="1" stopTime="0.00" timeLoss="58.01" rerouteNo="0" devices="tripinfo_EW_6 ssm_EW_6" vType="cars" speedFactor="1.14" vaporized=""/>
    <tripinfo id="WE_9" depart="106.00" departLane="2_1_3" departPos="5.10" departSpeed="0.00" departDelay="0.00" arrival="180.50" arrivalLane="1_4_2" arrivalPos="185.90" arrivalSpeed="12.61" duration="74.50" routeLength="395.14" waitingTime="18.00" waitingCount="2" stopTime="0.00" timeLoss="43.74" rerouteNo="0" devices="tripinfo_WE_9 ssm_WE_9" vType="cars" speedFactor="1.12" vaporized=""/>
    <tripinfo id="NW-bike.1" depart="98.00" departLane="5_1_4" departPos="1.70" departSpeed="0.00" departDelay="0.11" arrival="181.50" arrivalLane="1_2_1" arrivalPos="185.90" arrivalSpeed="5.11" duration="83.50" routeLength="379.28" waitingTime="3.50" waitingCount="2" stopTime="0.00" timeLoss="12.98" rerouteNo="0" devices="tripinfo_NW-bike.1 ssm_NW-bike.1" vType="bike" speedFactor="0.97" vaporized=""/>
    <tripinfo id="WE_8" depart="92.00" departLane="2_1_3" departPos="5.10" departSpeed="0.00" departDelay="0.00" arrival="182.50" arrivalLane="1_4_3" arrivalPos="185.90" arrivalSpeed="12.70" duration="90.50" routeLength="395.14" waitingTime="43.00" waitingCount="1" stopTime="0.00" timeLoss="59.76" rerouteNo="0" devices="tripinfo_WE_8 ssm_WE_8" vType="cars" speedFactor="0.97" vaporized=""/>
    <tripinfo id="EW_7" depart="111.00" departLane="4_1_3" departPos="5.10" departSpeed="0.00" departDelay="0.00" arrival="182.50" arrivalLane="1_2_3" arrivalPos="185.90" arrivalSpeed="11.68" duration="71.50" routeLength="395.14" waitingTime="25.00" waitingCount="2" stopTime="0.00" timeLoss="40.94" rerouteNo="0" devices="tripinfo_EW_7 ssm_EW_7" vType="cars" speedFactor="0.99" vaporized=""/>
    <tripinfo id="WE_11" depart="119.00" departLane="2_1_3" departPos="5.10" departSpeed="0.00" departDelay="2.00" arrival="182.50" arrivalLane="1_4_2" arrivalPos="185.90" arrivalSpeed="12.67" duration="63.50" routeLength="395.14" waitingTime="9.50" waitingCount="1" stopTime="0.00" timeLoss="32.69" rerouteNo="0" devices="tripinfo_WE_11 ssm_WE_11" vType="cars" speedFactor="1.04" vaporized=""/>