<?xml version="1.0" encoding="UTF-8"?>

<!-- generated on 2025-08-06 13:56:44 by Eclipse SUMO GUI Version 1.22.0
<sumoConfiguration xmlns:xsi="http://www.w3.org/2001/XMLSchema-instance" xsi:noNamespaceSchemaLocation="http://sumo.dlr.de/xsd/sumoConfiguration.xsd">

    <input>
        <net-file value="/home/naderian/Desktop/Shakiba/MMSVCC/environment/network_model/single_intersection_bike_Concurrent_(permitted_right).net.xml"/>
        <route-files value="/home/naderian/Desktop/Shakiba/MMSVCC/environment/network_model/single_intersection.rou.xml"/>
        <additional-files value="/home/naderian/Desktop/Shakiba/MMSVCC/environment/network_model/single_intersection_Concurrent_(permitted_right).add.xml"/>
    </input>

    <output>
        <queue-output value="/home/naderian/Desktop/Shakiba/MMSVCC/environment/simulation_data/single_intersection/queues_multi_scale_asymmetric_pene_75.xml"/>
        <tripinfo-output value="/home/naderian/Desktop/Shakiba/MMSVCC/environment/simulation_data/single_intersection/tripinfo_multi_scale_asymmetric_pene_75.xml"/>
    </output>

    <time>
        <begin value="0"/>
        <step-length value="0.5"/>
    </time>

    <processing>
        <waiting-time-memory value="1000"/>
    </processing>

    <report>
        <verbose value="true"/>
        <no-step-log value="true"/>
    </report>

    <ssm_device>
        <device.ssm.file value="/home/naderian/Desktop/Shakiba/MMSVCC/environment/simulation_data/single_intersection/SSMinfo_multi_scale_pene_75.xml"/>
    </ssm_device>

    <traci_server>
        <remote-port value="60561"/>
    </traci_server>

    <gui_only>
        <start value="true"/>
    </gui_only>

</sumoConfiguration>
-->

<tripinfos xmlns:xsi="http://www.w3.org/2001/XMLSchema-instance" xsi:noNamespaceSchemaLocation="http://sumo.dlr.de/xsd/tripinfo_file.xsd">
    <tripinfo id="SN_0" depart="0.00" departLane="3_1_4" departPos="5.10" departSpeed="0.00" departDelay="0.00" arrival="36.00" arrivalLane="1_5_3" arrivalPos="184.90" arrivalSpeed="12.75" duration="36.00" routeLength="395.12" waitingTime="0.00" waitingCount="0" stopTime="0.00" timeLoss="5.31" rerouteNo="0" devices="tripinfo_SN_0 ssm_SN_0" vType="cars" speedFactor="1.04" vaporized=""/>
    <tripinfo id="SN_2" depart="5.00" departLane="3_1_4" departPos="5.10" departSpeed="0.00" departDelay="0.00" arrival="44.00" arrivalLane="1_5_3" arrivalPos="184.90" arrivalSpeed="11.00" duration="39.00" routeLength="395.12" waitingTime="0.00" waitingCount="0" stopTime="0.00" timeLoss="8.34" rerouteNo="0" devices="tripinfo_SN_2 ssm_SN_2" vType="cars" speedFactor="0.85" vaporized=""/>
    <tripinfo id="WE_0" depart="1.00" departLane="2_1_4" departPos="5.10" departSpeed="0.00" departDelay="0.00" arrival="53.50" arrivalLane="1_4_3" arrivalPos="184.90" arrivalSpeed="13.00" duration="52.50" routeLength="395.12" waitingTime="13.50" waitingCount="1" stopTime="0.00" timeLoss="21.67" rerouteNo="0" devices="tripinfo_WE_0 ssm_WE_0" vType="cars" speedFactor="0.86" vaporized=""/>
    <tripinfo id="WS_3" depart="7.00" departLane="2_1_3" departPos="5.10" departSpeed="0.00" departDelay="0.00" arrival="56.00" arrivalLane="1_3_3" arrivalPos="184.90" arrivalSpeed="11.55" duration="49.00" routeLength="378.83" waitingTime="3.50" waitingCount="1" stopTime="0.00" timeLoss="19.15" rerouteNo="0" devices="tripinfo_WS_3 ssm_WS_3" vType="cars" speedFactor="0.93" vaporized=""/>
    <tripinfo id="WE_1" depart="10.00" departLane="2_1_4" departPos="5.10" departSpeed="0.00" departDelay="0.00" arrival="56.00" arrivalLane="1_4_4" arrivalPos="184.90" arrivalSpeed="12.70" duration="46.00" routeLength="395.12" waitingTime="4.50" waitingCount="1" stopTime="0.00" timeLoss="15.20" rerouteNo="0" devices="tripinfo_WE_1 ssm_WE_1" vType="cars" speedFactor="1.10" vaporized=""/>
    <tripinfo id="WE_2" depart="12.50" departLane="2_1_4" departPos="5.10" departSpeed="0.00" departDelay="0.50" arrival="56.50" arrivalLane="1_4_3" arrivalPos="184.90" arrivalSpeed="13.00" duration="44.00" routeLength="395.12" waitingTime="0.00" waitingCount="0" stopTime="0.00" timeLoss="13.50" rerouteNo="0" devices="tripinfo_WE_2 ssm_WE_2" vType="cars" speedFactor="1.17" vaporized=""/>
    <tripinfo id="WE_3" depart="19.00" departLane="2_1_4" departPos="5.10" departSpeed="0.00" departDelay="0.00" arrival="58.00" arrivalLane="1_4_4" arrivalPos="184.90" arrivalSpeed="13.00" duration="39.00" routeLength="395.12" waitingTime="0.00" waitingCount="0" stopTime="0.00" timeLoss="8.38" rerouteNo="0" devices="tripinfo_WE_3 ssm_WE_3" vType="cars" speedFactor="0.90" vaporized=""/>
    <tripinfo id="WE_4" depart="26.00" departLane="2_1_4" departPos="5.10" departSpeed="0.00" departDelay="0.00" arrival="64.00" arrivalLane="1_4_3" arrivalPos="184.90" arrivalSpeed="11.00" duration="38.00" routeLength="395.12" waitingTime="0.00" waitingCount="0" stopTime="0.00" timeLoss="7.47" rerouteNo="0" devices="tripinfo_WE_4 ssm_WE_4" vType="cars" speedFactor="1.00" vaporized=""/>
    <tripinfo id="WE_5" depart="29.00" departLane="2_1_4" departPos="5.10" departSpeed="0.00" departDelay="0.00" arrival="65.50" arrivalLane="1_4_4" arrivalPos="184.90" arrivalSpeed="12.08" duration="36.50" routeLength="395.12" waitingTime="0.00" waitingCount="0" stopTime="0.00" timeLoss="6.07" rerouteNo="0" devices="tripinfo_WE_5 ssm_WE_5" vType="cars" speedFactor="0.96" vaporized=""/>
    <tripinfo id="WS_5" depart="16.00" departLane="2_1_3" departPos="5.10" departSpeed="0.00" departDelay="0.00" arrival="66.50" arrivalLane="1_3_3" arrivalPos="184.90" arrivalSpeed="13.00" duration="50.50" routeLength="378.83" waitingTime="7.50" waitingCount="2" stopTime="0.00" timeLoss="20.51" rerouteNo="0" devices="tripinfo_WS_5 ssm_WS_5" vType="cars" speedFactor="1.02" vaporized=""/>
    <tripinfo id="WE_6" depart="32.00" departLane="2_1_4" departPos="5.10" departSpeed="0.00" departDelay="2.00" arrival="67.50" arrivalLane="1_4_4" arrivalPos="184.90" arrivalSpeed="13.00" duration="35.50" routeLength="395.12" waitingTime="0.00" waitingCount="0" stopTime="0.00" timeLoss="4.97" rerouteNo="0" devices="tripinfo_WE_6 ssm_WE_6" vType="cars" speedFactor="0.89" vaporized=""/>
    <tripinfo id="EW_0" depart="32.00" departLane="4_1_4" departPos="5.10" departSpeed="0.00" departDelay="0.00" arrival="68.00" arrivalLane="1_2_3" arrivalPos="184.90" arrivalSpeed="13.00" duration="36.00" routeLength="395.12" waitingTime="0.00" waitingCount="0" stopTime="0.00" timeLoss="5.43" rerouteNo="0" devices="tripinfo_EW_0 ssm_EW_0" vType="cars" speedFactor="0.84" vaporized=""/>
    <tripinfo id="EW_1" depart="37.00" departLane="4_1_4" departPos="5.10" departSpeed="0.00" departDelay="0.00" arrival="72.50" arrivalLane="1_2_3" arrivalPos="184.90" arrivalSpeed="13.00" duration="35.50" routeLength="395.12" waitingTime="0.00" waitingCount="0" stopTime="0.00" timeLoss="5.00" rerouteNo="0" devices="tripinfo_EW_1 ssm_EW_1" vType="cars" speedFactor="1.00" vaporized=""/>
    <tripinfo id="WS-bike.0" depart="17.00" departLane="2_1_1" departPos="1.70" departSpeed="0.00" departDelay="0.05" arrival="78.00" arrivalLane="1_3_1" arrivalPos="184.90" arrivalSpeed="6.66" duration="61.00" routeLength="376.68" waitingTime="0.00" waitingCount="0" stopTime="0.00" timeLoss="5.14" rerouteNo="0" devices="tripinfo_WS-bike.0 ssm_WS-bike.0" vType="bike" speedFactor="1.22" vaporized=""/>
    <tripinfo id="WE-bike.1" depart="11.00" departLane="2_1_1" departPos="1.70" departSpeed="0.00" departDelay="0.02" arrival="86.00" arrivalLane="1_4_2" arrivalPos="184.90" arrivalSpeed="5.67" duration="75.00" routeLength="398.63" waitingTime="0.00" waitingCount="0" stopTime="0.00" timeLoss="5.08" rerouteNo="0" devices="tripinfo_WE-bike.1 ssm_WE-bike.1" vType="bike" speedFactor="1.03" vaporized=""/>
    <tripinfo id="WE-bike.0" depart="1.50" departLane="2_1_1" departPos="1.70" departSpeed="0.00" departDelay="0.06" arrival="86.50" arrivalLane="1_4_1" arrivalPos="184.90" arrivalSpeed="4.93" duration="85.00" routeLength="398.63" waitingTime="0.00" waitingCount="0" stopTime="0.00" timeLoss="4.73" rerouteNo="0" devices="tripinfo_WE-bike.0 ssm_WE-bike.0" vType="bike" speedFactor="0.90" vaporized=""/>
    <tripinfo id="EW-bike.0" depart="13.50" departLane="4_1_1" departPos="1.70" departSpeed="0.00" departDelay="0.31" arrival="86.50" arrivalLane="1_2_1" arrivalPos="184.90" arrivalSpeed="5.72" duration="73.00" routeLength="398.71" waitingTime="0.00" waitingCount="0" stopTime="0.00" timeLoss="4.67" rerouteNo="0" devices="tripinfo_EW-bike.0 ssm_EW-bike.0" vType="bike" speedFactor="1.05" vaporized=""/>
    <tripinfo id="NS_1" depart="1.00" departLane="5_1_4" departPos="5.10" departSpeed="0.00" departDelay="0.00" arrival="88.50" arrivalLane="1_3_3" arrivalPos="184.90" arrivalSpeed="13.00" duration="87.50" routeLength="395.12" waitingTime="46.50" waitingCount="6" stopTime="0.00" timeLoss="56.67" rerouteNo="0" devices="tripinfo_NS_1 ssm_NS_1" vType="cars" speedFactor="0.95" vaporized=""/>
    <tripinfo id="SN_8" depart="25.00" departLane="3_1_4" departPos="5.10" departSpeed="0.00" departDelay="0.00" arrival="88.50" arrivalLane="1_5_3" arrivalPos="184.90" arrivalSpeed="13.00" duration="63.50" routeLength="395.12" waitingTime="24.50" waitingCount="1" stopTime="0.00" timeLoss="32.67" rerouteNo="0" devices="tripinfo_SN_8 ssm_SN_8" vType="cars" speedFactor="0.98" vaporized=""/>
    <tripinfo id="SN_10" depart="30.00" departLane="3_1_4" departPos="5.10" departSpeed="0.00" departDelay="1.00" arrival="90.00" arrivalLane="1_5_3" arrivalPos="184.90" arrivalSpeed="13.00" duration="60.00" routeLength="395.12" waitingTime="14.00" waitingCount="1" stopTime="0.00" timeLoss="29.21" rerouteNo="0" devices="tripinfo_SN_10 ssm_SN_10" vType="cars" speedFactor="0.97" vaporized=""/>
    <tripinfo id="NS_7" depart="22.00" departLane="5_1_4" departPos="5.10" departSpeed="0.00" departDelay="0.00" arrival="90.50" arrivalLane="1_3_4" arrivalPos="184.90" arrivalSpeed="12.42" duration="68.50" routeLength="395.12" waitingTime="25.50" waitingCount="1" stopTime="0.00" timeLoss="37.76" rerouteNo="0" devices="tripinfo_NS_7 ssm_NS_7" vType="cars" speedFactor="1.04" vaporized=""/>
    <tripinfo id="SN_9" depart="27.50" departLane="3_1_4" departPos="5.10" departSpeed="0.00" departDelay="1.50" arrival="91.00" arrivalLane="1_5_4" arrivalPos="184.90" arrivalSpeed="12.38" duration="63.50" routeLength="395.12" waitingTime="23.00" waitingCount="1" stopTime="0.00" timeLoss="32.92" rerouteNo="0" devices="tripinfo_SN_9 ssm_SN_9" vType="cars" speedFactor="1.17" vaporized=""/>
    <tripinfo id="NS_17" depart="50.00" departLane="5_1_4" departPos="5.10" departSpeed="0.00" departDelay="0.00" arrival="92.00" arrivalLane="1_3_4" arrivalPos="184.90" arrivalSpeed="13.00" duration="42.00" routeLength="395.12" waitingTime="0.00" waitingCount="0" stopTime="0.00" timeLoss="11.24" rerouteNo="0" devices="tripinfo_NS_17 ssm_NS_17" vType="cars" speedFactor="0.95" vaporized=""/>
    <tripinfo id="NW_19" depart="53.00" departLane="5_1_3" departPos="5.10" departSpeed="0.00" departDelay="0.00" arrival="92.00" arrivalLane="1_2_3" arrivalPos="184.90" arrivalSpeed="13.00" duration="39.00" routeLength="378.83" waitingTime="0.00" waitingCount="0" stopTime="0.00" timeLoss="9.11" rerouteNo="0" devices="tripinfo_NW_19 ssm_NW_19" vType="cars" speedFactor="1.00" vaporized=""/>
    <tripinfo id="SN_11" depart="32.50" departLane="3_1_4" departPos="5.10" departSpeed="0.00" departDelay="2.50" arrival="92.50" arrivalLane="1_5_4" arrivalPos="184.90" arrivalSpeed="13.00" duration="60.00" routeLength="395.12" waitingTime="10.50" waitingCount="2" stopTime="0.00" timeLoss="29.41" rerouteNo="0" devices="tripinfo_SN_11 ssm_SN_11" vType="cars" speedFactor="1.02" vaporized=""/>
    <tripinfo id="NS_12" depart="34.00" departLane="5_1_4" departPos="5.10" departSpeed="0.00" departDelay="0.00" arrival="92.50" arrivalLane="1_3_3" arrivalPos="184.90" arrivalSpeed="12.43" duration="58.50" routeLength="395.12" waitingTime="15.50" waitingCount="1" stopTime="0.00" timeLoss="27.71" rerouteNo="0" devices="tripinfo_NS_12 ssm_NS_12" vType="cars" speedFactor="0.90" vaporized=""/>
    <tripinfo id="SN_14" depart="38.00" departLane="3_1_4" departPos="5.10" departSpeed="0.00" departDelay="0.00" arrival="94.50" arrivalLane="1_5_3" arrivalPos="184.90" arrivalSpeed="11.79" duration="56.50" routeLength="395.12" waitingTime="9.00" waitingCount="1" stopTime="0.00" timeLoss="26.01" rerouteNo="0" devices="tripinfo_SN_14 ssm_SN_14" vType="cars" speedFactor="0.96" vaporized=""/>
    <tripinfo id="EW-bike.1" depart="27.50" departLane="4_1_3" departPos="1.70" departSpeed="0.00" departDelay="0.09" arrival="95.50" arrivalLane="1_2_1" arrivalPos="184.90" arrivalSpeed="6.09" duration="68.00" routeLength="398.52" waitingTime="0.00" waitingCount="0" stopTime="0.00" timeLoss="4.62" rerouteNo="0" devices="tripinfo_EW-bike.1 ssm_EW-bike.1" vType="bike" speedFactor="1.13" vaporized=""/>
    <tripinfo id="SN_16" depart="40.50" departLane="3_1_4" departPos="5.10" departSpeed="0.00" departDelay="0.50" arrival="96.00" arrivalLane="1_5_4" arrivalPos="184.90" arrivalSpeed="13.00" duration="55.50" routeLength="395.12" waitingTime="6.50" waitingCount="5" stopTime="0.00" timeLoss="24.67" rerouteNo="0" devices="tripinfo_SN_16 ssm_SN_16" vType="cars" speedFactor="0.93" vaporized=""/>
    <tripinfo id="WE-bike.2" depart="21.00" departLane="2_1_3" departPos="1.70" departSpeed="0.00" departDelay="0.09" arrival="97.00" arrivalLane="1_4_1" arrivalPos="184.90" arrivalSpeed="5.45" duration="76.00" routeLength="398.52" waitingTime="0.00" waitingCount="0" stopTime="0.00" timeLoss="4.94" rerouteNo="0" devices="tripinfo_WE-bike.2 ssm_WE-bike.2" vType="bike" speedFactor="1.01" vaporized=""/>
    <tripinfo id="SN_20" depart="60.00" departLane="3_1_4" departPos="5.10" departSpeed="0.00" departDelay="0.00" arrival="99.50" arrivalLane="1_5_3" arrivalPos="184.90" arrivalSpeed="13.00" duration="39.50" routeLength="395.12" waitingTime="0.00" waitingCount="0" stopTime="0.00" timeLoss="9.03" rerouteNo="0" devices="tripinfo_SN_20 ssm_SN_20" vType="cars" speedFactor="0.83" vaporized=""/>
    <tripinfo id="SN_18" depart="50.00" departLane="3_1_4" departPos="5.10" departSpeed="0.00" departDelay="0.00" arrival="100.50" arrivalLane="1_5_3" arrivalPos="184.90" arrivalSpeed="10.48" duration="50.50" routeLength="395.12" waitingTime="1.00" waitingCount="2" stopTime="0.00" timeLoss="19.78" rerouteNo="0" devices="tripinfo_SN_18 ssm_SN_18" vType="cars" speedFactor="0.99" vaporized=""/>
    <tripinfo id="SE_13" depart="36.50" departLane="3_1_3" departPos="5.10" departSpeed="0.00" departDelay="0.50" arrival="102.00" arrivalLane="1_4_3" arrivalPos="184.90" arrivalSpeed="13.00" duration="65.50" routeLength="378.82" waitingTime="6.00" waitingCount="2" stopTime="0.00" timeLoss="35.38" rerouteNo="0" devices="tripinfo_SE_13 ssm_SE_13" vType="cars" speedFactor="1.13" vaporized=""/>
    <tripinfo id="SN_22" depart="75.00" departLane="3_1_4" departPos="5.10" departSpeed="0.00" departDelay="0.00" arrival="110.50" arrivalLane="1_5_4" arrivalPos="184.90" arrivalSpeed="13.00" duration="35.50" routeLength="395.12" waitingTime="0.00" waitingCount="0" stopTime="0.00" timeLoss="5.06" rerouteNo="0" devices="tripinfo_SN_22 ssm_SN_22" vType="cars" speedFactor="0.86" vaporized=""/>
    <tripinfo id="SN-bike.0" depart="22.50" departLane="3_1_1" departPos="1.70" departSpeed="0.00" departDelay="0.25" arrival="111.50" arrivalLane="1_5_1" arrivalPos="184.90" arrivalSpeed="5.47" duration="89.00" routeLength="398.62" waitingTime="11.00" waitingCount="1" stopTime="0.00" timeLoss="19.55" rerouteNo="0" devices="tripinfo_SN-bike.0 ssm_SN-bike.0" vType="bike" speedFactor="1.03" vaporized=""/>
    <tripinfo id="SN-bike.1" depart="32.50" departLane="3_1_3" departPos="1.70" departSpeed="0.00" departDelay="0.28" arrival="115.50" arrivalLane="1_5_1" arrivalPos="184.90" arrivalSpeed="5.49" duration="83.00" routeLength="398.52" waitingTime="1.50" waitingCount="1" stopTime="0.00" timeLoss="12.41" rerouteNo="0" devices="tripinfo_SN-bike.1 ssm_SN-bike.1" vType="bike" speedFactor="1.02" vaporized=""/>
    <tripinfo id="SE_15" depart="39.50" departLane="3_1_3" departPos="5.10" departSpeed="0.00" departDelay="0.50" arrival="118.50" arrivalLane="1_4_3" arrivalPos="184.90" arrivalSpeed="13.00" duration="79.00" routeLength="378.82" waitingTime="16.50" waitingCount="4" stopTime="0.00" timeLoss="49.18" rerouteNo="0" devices="tripinfo_SE_15 ssm_SE_15" vType="cars" speedFactor="0.99" vaporized=""/>
    <tripinfo id="SN_25" depart="84.00" departLane="3_1_4" departPos="5.10" departSpeed="0.00" departDelay="0.00" arrival="119.00" arrivalLane="1_5_4" arrivalPos="184.90" arrivalSpeed="13.00" duration="35.00" routeLength="395.12" waitingTime="0.00" waitingCount="0" stopTime="0.00" timeLoss="4.16" rerouteNo="0" devices="tripinfo_SN_25 ssm_SN_25" vType="cars" speedFactor="1.06" vaporized=""/>
    <tripinfo id="SE_24" depart="83.00" departLane="3_1_3" departPos="5.10" departSpeed="0.00" departDelay="0.00" arrival="120.00" arrivalLane="1_4_3" arrivalPos="184.90" arrivalSpeed="13.00" duration="37.00" routeLength="378.82" waitingTime="0.00" waitingCount="0" stopTime="0.00" timeLoss="7.32" rerouteNo="0" devices="tripinfo_SE_24 ssm_SE_24" vType="cars" speedFactor="1.03" vaporized=""/>
    <tripinfo id="SN_26" depart="86.00" departLane="3_1_4" departPos="5.10" departSpeed="0.00" departDelay="1.00" arrival="122.00" arrivalLane="1_5_3" arrivalPos="184.90" arrivalSpeed="13.00" duration="36.00" routeLength="395.12" waitingTime="0.00" waitingCount="0" stopTime="0.00" timeLoss="5.59" rerouteNo="0" devices="tripinfo_SN_26 ssm_SN_26" vType="cars" speedFactor="0.93" vaporized=""/>
    <tripinfo id="NS_27" depart="89.00" departLane="5_1_4" departPos="5.10" departSpeed="0.00" departDelay="0.00" arrival="124.00" arrivalLane="1_3_4" arrivalPos="184.90" arrivalSpeed="13.00" duration="35.00" routeLength="395.12" waitingTime="0.00" waitingCount="0" stopTime="0.00" timeLoss="4.15" rerouteNo="0" devices="tripinfo_NS_27 ssm_NS_27" vType="cars" speedFactor="0.90" vaporized=""/>
    <tripinfo id="NW_21" depart="69.00" departLane="5_1_3" departPos="5.10" departSpeed="0.00" departDelay="0.00" arrival="129.00" arrivalLane="1_2_3" arrivalPos="184.90" arrivalSpeed="13.00" duration="60.00" routeLength="378.83" waitingTime="23.00" waitingCount="1" stopTime="0.00" timeLoss="30.20" rerouteNo="0" devices="tripinfo_NW_21 ssm_NW_21" vType="cars" speedFactor="1.07" vaporized=""/>
    <tripinfo id="WE_8" depart="78.00" departLane="2_1_4" departPos="5.10" departSpeed="0.00" departDelay="0.00" arrival="139.50" arrivalLane="1_4_3" arrivalPos="184.90" arrivalSpeed="13.00" duration="61.50" routeLength="395.12" waitingTime="23.00" waitingCount="1" stopTime="0.00" timeLoss="30.67" rerouteNo="0" devices="tripinfo_WE_8 ssm_WE_8" vType="cars" speedFactor="0.86" vaporized=""/>
    <tripinfo id="WE_7" depart="67.00" departLane="2_1_4" departPos="5.10" departSpeed="0.00" departDelay="0.00" arrival="142.00" arrivalLane="1_4_3" arrivalPos="184.90" arrivalSpeed="13.00" duration="75.00" routeLength="395.12" waitingTime="36.00" waitingCount="1" stopTime="0.00" timeLoss="44.17" rerouteNo="0" devices="tripinfo_WE_7 ssm_WE_7" vType="cars" speedFactor="0.93" vaporized=""/>
    <tripinfo id="EW_3" depart="62.00" departLane="4_1_4" departPos="5.10" departSpeed="0.00" departDelay="0.00" arrival="144.50" arrivalLane="1_2_3" arrivalPos="184.90" arrivalSpeed="11.57" duration="82.50" routeLength="395.12" waitingTime="39.00" waitingCount="2" stopTime="0.00" timeLoss="51.81" rerouteNo="0" devices="tripinfo_EW_3 ssm_EW_3" vType="cars" speedFactor="0.98" vaporized=""/>
    <tripinfo id="EW_2" depart="42.00" departLane="4_1_4" departPos="5.10" departSpeed="0.00" departDelay="0.00" arrival="145.00" arrivalLane="1_2_4" arrivalPos="184.90" arrivalSpeed="13.00" duration="103.00" routeLength="395.12" waitingTime="61.00" waitingCount="1" stopTime="0.00" timeLoss="72.15" rerouteNo="0" devices="tripinfo_EW_2 ssm_EW_2" vType="cars" speedFactor="1.13" vaporized=""/>
    <tripinfo id="WE_9" depart="109.00" departLane="2_1_4" departPos="5.10" departSpeed="0.00" departDelay="0.00" arrival="147.00" arrivalLane="1_4_4" arrivalPos="184.90" arrivalSpeed="12.24" duration="38.00" routeLength="395.12" waitingTime="0.00" waitingCount="0" stopTime="0.00" timeLoss="7.51" rerouteNo="0" devices="tripinfo_WE_9 ssm_WE_9" vType="cars" speedFactor="0.95" vaporized=""/>
    <tripinfo id="SN-bike.2" depart="61.00" departLane="3_1_1" departPos="1.70" departSpeed="0.00" departDelay="0.25" arrival="150.00" arrivalLane="1_5_1" arrivalPos="184.90" arrivalSpeed="5.01" duration="89.00" routeLength="398.62" waitingTime="3.50" waitingCount="1" stopTime="0.00" timeLoss="11.50" rerouteNo="0" devices="tripinfo_SN-bike.2 ssm_SN-bike.2" vType="bike" speedFactor="0.93" vaporized=""/>
    <tripinfo id="WE_10" depart="117.00" departLane="2_1_4" departPos="5.10" departSpeed="0.00" departDelay="0.00" arrival="154.00" arrivalLane="1_4_4" arrivalPos="184.90" arrivalSpeed="12.95" duration="37.00" routeLength="395.12" waitingTime="0.00" waitingCount="0" stopTime="0.00" timeLoss="6.18" rerouteNo="0" devices="tripinfo_WE_10 ssm_WE_10" vType="cars" speedFactor="0.92" vaporized=""/>
    <personinfo id="person_NS_w.0" depart="2.50" type="DEFAULT_PEDTYPE" speedFactor="1.12" duration="152.50" waitingTime="0.00" timeLoss="10.40" traveltime="152.50">
        <walk depart="2.50" departPos="100.00" arrival="155.00" arrivalPos="92.45" duration="152.50" routeLength="221.14" timeLoss="10.40" maxSpeed="1.56"/>
    </personinfo>
    <tripinfo id="WS_23" depart="79.00" departLane="2_1_3" departPos="5.10" departSpeed="0.00" departDelay="0.00" arrival="157.00" arrivalLane="1_3_3" arrivalPos="184.90" arrivalSpeed="12.58" duration="78.00" routeLength="378.83" waitingTime="15.50" waitingCount="3" stopTime="0.00" timeLoss="48.12" rerouteNo="0" devices="tripinfo_WS_23 ssm_WS_23" vType="cars" speedFactor="1.24" vaporized=""/>
    <tripinfo id="WS_28" depart="91.00" departLane="2_1_3" departPos="5.10" departSpeed="0.00" departDelay="0.00" arrival="158.50" arrivalLane="1_3_3" arrivalPos="184.90" arrivalSpeed="11.78" duration="67.50" routeLength="378.83" waitingTime="1.50" waitingCount="1" stopTime="0.00" timeLoss="37.54" rerouteNo="0" devices="tripinfo_WS_28 ssm_WS_28" vType="cars" speedFactor="0.97" vaporized=""/>
    <tripinfo id="WE_11" depart="120.00" departLane="2_1_4" departPos="5.10" departSpeed="0.00" departDelay="2.00" arrival="159.00" arrivalLane="1_4_3" arrivalPos="184.90" arrivalSpeed="11.00" duration="39.00" routeLength="395.12" waitingTime="0.00" waitingCount="0" stopTime="0.00" timeLoss="8.26" rerouteNo="0" devices="tripinfo_WE_11 ssm_WE_11" vType="cars" speedFactor="1.07" vaporized=""/>
    <tripinfo id="EW_4" depart="124.00" departLane="4_1_4" departPos="5.10" departSpeed="0.00" departDelay="0.00" arrival="159.00" arrivalLane="1_2_3" arrivalPos="184.90" arrivalSpeed="13.00" duration="35.00" routeLength="395.12" waitingTime="0.00" waitingCount="0" stopTime="0.00" timeLoss="4.48" rerouteNo="0" devices="tripinfo_EW_4 ssm_EW_4" vType="cars" speedFactor="0.93" vaporized=""/>
    <tripinfo id="WS_32" depart="102.00" departLane="2_1_3" departPos="5.10" departSpeed="0.00" departDelay="0.00" arrival="160.50" arrivalLane="1_3_3" arrivalPos="184.90" arrivalSpeed="11.78" duration="58.50" routeLength="378.83" waitingTime="0.00" waitingCount="0" stopTime="0.00" timeLoss="28.48" rerouteNo="0" devices="tripinfo_WS_32 ssm_WS_32" vType="cars" speedFactor="0.93" vaporized=""/>
    <tripinfo id="WE_12" depart="122.50" departLane="2_1_4" departPos="5.10" departSpeed="0.00" departDelay="3.50" arrival="160.50" arrivalLane="1_4_4" arrivalPos="184.90" arrivalSpeed="13.00" duration="38.00" routeLength="395.12" waitingTime="0.00" waitingCount="0" stopTime="0.00" timeLoss="7.51" rerouteNo="0" devices="tripinfo_WE_12 ssm_WE_12" vType="cars" speedFactor="1.12" vaporized=""/>
    <tripinfo id="NE-bike.0" depart="44.50" departLane="5_1_2" departPos="1.70" departSpeed="0.00" departDelay="0.37" arrival="161.00" arrivalLane="1_4_1" arrivalPos="184.90" arrivalSpeed="5.33" duration="116.50" routeLength="419.14" waitingTime="32.00" waitingCount="1" stopTime="0.00" timeLoss="39.92" rerouteNo="0" devices="tripinfo_NE-bike.0 ssm_NE-bike.0" vType="bike" speedFactor="0.99" vaporized=""/>
    <tripinfo id="WE_13" depart="125.50" departLane="2_1_4" departPos="5.10" departSpeed="0.00" departDelay="5.50" arrival="163.00" arrivalLane="1_4_3" arrivalPos="184.90" arrivalSpeed="13.00" duration="37.50" routeLength="395.12" waitingTime="0.00" waitingCount="0" stopTime="0.00" timeLoss="6.88" rerouteNo="0" devices="tripinfo_WE_13 ssm_WE_13" vType="cars" speedFactor="1.00" vaporized=""/>
    <personinfo id="person_SN_e.0" depart="18.50" type="DEFAULT_PEDTYPE" speedFactor="1.15" duration="146.00" waitingTime="0.00" timeLoss="7.54" traveltime="146.00">
        <walk depart="18.50" departPos="100.00" arrival="164.50" arrivalPos="92.45" duration="146.00" routeLength="220.89" timeLoss="7.54" maxSpeed="1.60"/>
    </personinfo>
    <tripinfo id="EW_5" depart="129.00" departLane="4_1_4" departPos="5.10" departSpeed="0.00" departDelay="0.00" arrival="165.00" arrivalLane="1_2_3" arrivalPos="184.90" arrivalSpeed="12.03" duration="36.00" routeLength="395.12" waitingTime="0.00" waitingCount="0" stopTime="0.00" timeLoss="5.26" rerouteNo="0" devices="tripinfo_EW_5 ssm_EW_5" vType="cars" speedFactor="1.06" vaporized=""/>
    <tripinfo id="WS-bike.1" depart="83.50" departLane="2_1_1" departPos="1.70" departSpeed="0.00" departDelay="0.06" arrival="165.00" arrivalLane="1_3_1" arrivalPos="184.90" arrivalSpeed="5.61" duration="81.50" routeLength="376.68" waitingTime="5.00" waitingCount="1" stopTime="0.00" timeLoss="16.33" rerouteNo="0" devices="tripinfo_WS-bike.1 ssm_WS-bike.1" vType="bike" speedFactor="1.04" vaporized=""/>
    <tripinfo id="WE-bike.6" depart="84.00" departLane="2_1_4" departPos="1.70" departSpeed="0.00" departDelay="0.17" arrival="165.00" arrivalLane="1_4_1" arrivalPos="184.90" arrivalSpeed="5.31" duration="81.00" routeLength="398.52" waitingTime="0.00" waitingCount="0" stopTime="0.00" timeLoss="6.63" rerouteNo="0" devices="tripinfo_WE-bike.6 ssm_WE-bike.6" vType="bike" speedFactor="0.97" vaporized=""/>
    <tripinfo id="WE_14" depart="128.50" departLane="2_1_4" departPos="5.10" departSpeed="0.00" departDelay="5.50" arrival="165.50" arrivalLane="1_4_3" arrivalPos="184.90" arrivalSpeed="13.00" duration="37.00" routeLength="395.12" waitingTime="0.00" waitingCount="0" stopTime="0.00" timeLoss="6.39" rerouteNo="0" devices="tripinfo_WE_14 ssm_WE_14" vType="cars" speedFactor="1.09" vaporized=""/>
    <tripinfo id="WE_15" depart="132.00" departLane="2_1_4" departPos="5.10" departSpeed="0.00" departDelay="6.00" arrival="168.00" arrivalLane="1_4_3" arrivalPos="184.90" arrivalSpeed="13.00" duration="36.00" routeLength="395.12" waitingTime="0.00" waitingCount="0" stopTime="0.00" timeLoss="5.34" rerouteNo="0" devices="tripinfo_WE_15 ssm_WE_15" vType="cars" speedFactor="1.06" vaporized=""/>
    <tripinfo id="WE-bike.3" depart="56.50" departLane="2_1_1" departPos="1.70" departSpeed="0.00" departDelay="0.48" arrival="168.50" arrivalLane="1_4_1" arrivalPos="184.90" arrivalSpeed="5.34" duration="112.00" routeLength="398.63" waitingTime="30.50" waitingCount="1" stopTime="0.00" timeLoss="38.42" rerouteNo="0" devices="tripinfo_WE-bike.3 ssm_WE-bike.3" vType="bike" speedFactor="0.98" vaporized=""/>
    <tripinfo id="EW-bike.2" depart="56.00" departLane="4_1_1" departPos="1.70" departSpeed="0.00" departDelay="0.26" arrival="169.00" arrivalLane="1_2_1" arrivalPos="184.90" arrivalSpeed="5.59" duration="113.00" routeLength="398.71" waitingTime="35.50" waitingCount="2" stopTime="0.00" timeLoss="44.74" rerouteNo="0" devices="tripinfo_EW-bike.2 ssm_EW-bike.2" vType="bike" speedFactor="1.05" vaporized=""/>
    <tripinfo id="WE-bike.4" depart="71.00" departLane="2_1_3" departPos="1.70" departSpeed="0.00" departDelay="0.22" arrival="169.50" arrivalLane="1_4_2" arrivalPos="184.90" arrivalSpeed="5.25" duration="98.50" routeLength="398.52" waitingTime="12.50" waitingCount="1" stopTime="0.00" timeLoss="22.96" rerouteNo="0" devices="tripinfo_WE-bike.4 ssm_WE-bike.4" vType="bike" speedFactor="0.95" vaporized=""/>
    <tripinfo id="EW-bike.5" depart="94.50" departLane="4_1_4" departPos="1.70" departSpeed="0.00" departDelay="0.15" arrival="169.50" arrivalLane="1_2_2" arrivalPos="184.90" arrivalSpeed="5.48" duration="75.00" routeLength="398.52" waitingTime="0.00" waitingCount="0" stopTime="0.00" timeLoss="5.63" rerouteNo="0" devices="tripinfo_EW-bike.5 ssm_EW-bike.5" vType="bike" speedFactor="1.04" vaporized=""/>
    <tripinfo id="WE_16" depart="134.50" departLane="2_1_4" departPos="5.10" departSpeed="0.00" departDelay="1.50" arrival="170.50" arrivalLane="1_4_3" arrivalPos="184.90" arrivalSpeed="13.00" duration="36.00" routeLength="395.12" waitingTime="0.00" waitingCount="0" stopTime="0.00" timeLoss="5.19" rerouteNo="0" devices="tripinfo_WE_16 ssm_WE_16" vType="cars" speedFactor="1.06" vaporized=""/>
    <tripinfo id="WS_38" depart="135.00" departLane="2_1_3" departPos="5.10" departSpeed="0.00" departDelay="0.00" arrival="172.00" arrivalLane="1_3_3" arrivalPos="184.90" arrivalSpeed="13.00" duration="37.00" routeLength="378.83" waitingTime="0.00" waitingCount="0" stopTime="0.00" timeLoss="6.64" rerouteNo="0" devices="tripinfo_WS_38 ssm_WS_38" vType="cars" speedFactor="0.97" vaporized=""/>
    <tripinfo id="WE_17" depart="137.00" departLane="2_1_4" departPos="5.10" departSpeed="0.00" departDelay="3.00" arrival="173.00" arrivalLane="1_4_4" arrivalPos="184.90" arrivalSpeed="13.00" duration="36.00" routeLength="395.12" waitingTime="0.00" waitingCount="0" stopTime="0.00" timeLoss="5.49" rerouteNo="0" devices="tripinfo_WE_17 ssm_WE_17" vType="cars" speedFactor="1.05" vaporized=""/>