<?xml version="1.0" encoding="UTF-8"?>

<!-- generated on 2025-08-06 18:14:51 by Eclipse SUMO GUI Version 1.22.0
<sumoConfiguration xmlns:xsi="http://www.w3.org/2001/XMLSchema-instance" xsi:noNamespaceSchemaLocation="http://sumo.dlr.de/xsd/sumoConfiguration.xsd">

    <input>
        <net-file value="/home/naderian/Desktop/Shakiba/MMSVCC/environment/network_model/single_intersection_bike_Concurrent_(permitted_right).net.xml"/>
        <route-files value="/home/naderian/Desktop/Shakiba/MMSVCC/environment/network_model/single_intersection.rou.xml"/>
        <additional-files value="/home/naderian/Desktop/Shakiba/MMSVCC/environment/network_model/single_intersection_Concurrent_(permitted_right).add.xml"/>
    </input>

    <output>
        <queue-output value="/home/naderian/Desktop/Shakiba/MMSVCC/environment/simulation_data/single_intersection/queues_multi_scale_asymmetric_pene_100.xml"/>
        <tripinfo-output value="/home/naderian/Desktop/Shakiba/MMSVCC/environment/simulation_data/single_intersection/tripinfo_multi_scale_asymmetric_pene_100.xml"/>
    </output>

    <time>
        <begin value="0"/>
        <step-length value="0.5"/>
    </time>

    <processing>
        <waiting-time-memory value="1000"/>
    </processing>

    <report>
        <verbose value="true"/>
        <no-step-log value="true"/>
    </report>

    <ssm_device>
        <device.ssm.file value="/home/naderian/Desktop/Shakiba/MMSVCC/environment/simulation_data/single_intersection/SSMinfo_multi_scale_pene_100.xml"/>
    </ssm_device>

    <traci_server>
        <remote-port value="42839"/>
    </traci_server>

    <gui_only>
        <start value="true"/>
    </gui_only>

</sumoConfiguration>
-->

<tripinfos xmlns:xsi="http://www.w3.org/2001/XMLSchema-instance" xsi:noNamespaceSchemaLocation="http://sumo.dlr.de/xsd/tripinfo_file.xsd">
    <tripinfo id="SN_0" depart="0.00" departLane="3_1_4" departPos="5.10" departSpeed="0.00" departDelay="0.00" arrival="35.00" arrivalLane="1_5_3" arrivalPos="184.90" arrivalSpeed="13.00" duration="35.00" routeLength="395.12" waitingTime="0.00" waitingCount="0" stopTime="0.00" timeLoss="4.14" rerouteNo="0" devices="tripinfo_SN_0 ssm_SN_0" vType="cars" speedFactor="1.04" vaporized=""/>
    <tripinfo id="NS_1" depart="1.00" departLane="5_1_4" departPos="5.10" departSpeed="0.00" departDelay="0.00" arrival="36.50" arrivalLane="1_3_3" arrivalPos="184.90" arrivalSpeed="13.00" duration="35.50" routeLength="395.12" waitingTime="0.00" waitingCount="0" stopTime="0.00" timeLoss="5.05" rerouteNo="0" devices="tripinfo_NS_1 ssm_NS_1" vType="cars" speedFactor="0.95" vaporized=""/>
</tripinfos>
