<?xml version="1.0" encoding="UTF-8"?>

<!-- generated on 2025-06-25 13:55:49 by Eclipse SUMO GUI Version 1.22.0
<sumoConfiguration xmlns:xsi="http://www.w3.org/2001/XMLSchema-instance" xsi:noNamespaceSchemaLocation="http://sumo.dlr.de/xsd/sumoConfiguration.xsd">

    <input>
        <net-file value="/home/naderian/Desktop/Shakiba/MMSVCC/environment/network_model/single_intersection_Concurrent_(LPI).net.xml"/>
        <route-files value="/home/naderian/Desktop/Shakiba/MMSVCC/environment/network_model/single_intersection.rou.xml"/>
        <additional-files value="/home/naderian/Desktop/Shakiba/MMSVCC/environment/network_model/single_intersection.add_actuated_(LPI).xml"/>
    </input>

    <output>
        <queue-output value="/home/naderian/Desktop/Shakiba/MMSVCC/environment/simulation_data/single_intersection/queues_actuated_symmetric_pene_100.xml"/>
        <tripinfo-output value="/home/naderian/Desktop/Shakiba/MMSVCC/environment/simulation_data/single_intersection/tripinfo_actuated_symmetric_pene_100.xml"/>
    </output>

    <time>
        <begin value="0"/>
        <step-length value="0.5"/>
    </time>

    <processing>
        <waiting-time-memory value="1000"/>
    </processing>

    <report>
        <verbose value="true"/>
        <no-step-log value="true"/>
    </report>

    <ssm_device>
        <device.ssm.file value="/home/naderian/Desktop/Shakiba/MMSVCC/environment/simulation_data/single_intersection/SSMinfo_actuated_pene_100.xml"/>
    </ssm_device>

    <traci_server>
        <remote-port value="42939"/>
    </traci_server>

    <gui_only>
        <start value="true"/>
    </gui_only>

</sumoConfiguration>
-->

<tripinfos xmlns:xsi="http://www.w3.org/2001/XMLSchema-instance" xsi:noNamespaceSchemaLocation="http://sumo.dlr.de/xsd/tripinfo_file.xsd">
    <tripinfo id="SN_0" depart="0.00" departLane="3_1_2" departPos="5.10" departSpeed="0.00" departDelay="0.00" arrival="36.00" arrivalLane="1_5_1" arrivalPos="186.40" arrivalSpeed="12.84" duration="36.00" routeLength="395.15" waitingTime="0.00" waitingCount="0" stopTime="0.00" timeLoss="5.23" rerouteNo="0" devices="tripinfo_SN_0 ssm_SN_0" vType="cars" speedFactor="1.02" vaporized=""/>
    <tripinfo id="NS_1" depart="1.00" departLane="5_1_2" departPos="5.10" departSpeed="0.00" departDelay="0.00" arrival="38.00" arrivalLane="1_3_1" arrivalPos="186.40" arrivalSpeed="12.76" duration="37.00" routeLength="395.15" waitingTime="0.00" waitingCount="0" stopTime="0.00" timeLoss="6.18" rerouteNo="0" devices="tripinfo_NS_1 ssm_NS_1" vType="cars" speedFactor="1.01" vaporized=""/>
    <tripinfo id="SN_2" depart="5.00" departLane="3_1_2" departPos="5.10" departSpeed="0.00" departDelay="0.00" arrival="40.50" arrivalLane="1_5_1" arrivalPos="186.40" arrivalSpeed="11.92" duration="35.50" routeLength="395.15" waitingTime="0.00" waitingCount="0" stopTime="0.00" timeLoss="4.79" rerouteNo="0" devices="tripinfo_SN_2 ssm_SN_2" vType="cars" speedFactor="1.05" vaporized=""/>
    <tripinfo id="SE_4" depart="9.00" departLane="3_1_1" departPos="5.10" departSpeed="0.00" departDelay="0.00" arrival="47.00" arrivalLane="1_4_1" arrivalPos="186.40" arrivalSpeed="12.97" duration="38.00" routeLength="379.42" waitingTime="0.00" waitingCount="0" stopTime="0.00" timeLoss="7.80" rerouteNo="0" devices="tripinfo_SE_4 ssm_SE_4" vType="cars" speedFactor="0.94" vaporized=""/>
    <tripinfo id="NS_5" depart="11.00" departLane="5_1_2" departPos="5.10" departSpeed="0.00" departDelay="0.00" arrival="48.00" arrivalLane="1_3_1" arrivalPos="186.40" arrivalSpeed="12.64" duration="37.00" routeLength="395.15" waitingTime="0.00" waitingCount="0" stopTime="0.00" timeLoss="6.28" rerouteNo="0" devices="tripinfo_NS_5 ssm_NS_5" vType="cars" speedFactor="0.91" vaporized=""/>
    <tripinfo id="NS_8" depart="17.00" departLane="5_1_2" departPos="5.10" departSpeed="0.00" departDelay="0.00" arrival="53.50" arrivalLane="1_3_1" arrivalPos="186.40" arrivalSpeed="12.60" duration="36.50" routeLength="395.15" waitingTime="0.00" waitingCount="0" stopTime="0.00" timeLoss="5.84" rerouteNo="0" devices="tripinfo_NS_8 ssm_NS_8" vType="cars" speedFactor="0.95" vaporized=""/>
    <tripinfo id="SN_9" depart="18.00" departLane="3_1_2" departPos="5.10" departSpeed="0.00" departDelay="0.00" arrival="53.50" arrivalLane="1_5_1" arrivalPos="186.40" arrivalSpeed="12.33" duration="35.50" routeLength="395.15" waitingTime="0.00" waitingCount="0" stopTime="0.00" timeLoss="4.83" rerouteNo="0" devices="tripinfo_SN_9 ssm_SN_9" vType="cars" speedFactor="0.76" vaporized=""/>
    <tripinfo id="EN_10" depart="20.00" departLane="4_1_1" departPos="5.10" departSpeed="0.00" departDelay="0.00" arrival="78.50" arrivalLane="1_5_1" arrivalPos="186.40" arrivalSpeed="12.42" duration="58.50" routeLength="379.42" waitingTime="17.50" waitingCount="1" stopTime="0.00" timeLoss="28.47" rerouteNo="0" devices="tripinfo_EN_10 ssm_EN_10" vType="cars" speedFactor="0.96" vaporized=""/>
    <tripinfo id="EW_0" depart="22.00" departLane="4_1_2" departPos="5.10" departSpeed="0.00" departDelay="0.00" arrival="78.50" arrivalLane="1_2_1" arrivalPos="186.40" arrivalSpeed="12.64" duration="56.50" routeLength="395.15" waitingTime="17.00" waitingCount="1" stopTime="0.00" timeLoss="25.96" rerouteNo="0" devices="tripinfo_EW_0 ssm_EW_0" vType="cars" speedFactor="1.01" vaporized=""/>
    <tripinfo id="WE_1" depart="12.00" departLane="2_1_2" departPos="5.10" departSpeed="0.00" departDelay="0.00" arrival="79.00" arrivalLane="1_4_2" arrivalPos="186.40" arrivalSpeed="11.99" duration="67.00" routeLength="395.15" waitingTime="27.00" waitingCount="1" stopTime="0.00" timeLoss="36.42" rerouteNo="0" devices="tripinfo_WE_1 ssm_WE_1" vType="cars" speedFactor="1.30" vaporized=""/>
    <tripinfo id="WE_0" depart="1.00" departLane="2_1_2" departPos="5.10" departSpeed="0.00" departDelay="0.00" arrival="80.00" arrivalLane="1_4_1" arrivalPos="186.40" arrivalSpeed="12.69" duration="79.00" routeLength="395.15" waitingTime="38.00" waitingCount="1" stopTime="0.00" timeLoss="48.33" rerouteNo="0" devices="tripinfo_WE_0 ssm_WE_0" vType="cars" speedFactor="1.12" vaporized=""/>
    <tripinfo id="WS_3" depart="7.00" departLane="2_1_1" departPos="5.10" departSpeed="0.00" departDelay="0.00" arrival="80.50" arrivalLane="1_3_1" arrivalPos="186.40" arrivalSpeed="12.52" duration="73.50" routeLength="379.43" waitingTime="30.00" waitingCount="2" stopTime="0.00" timeLoss="43.38" rerouteNo="0" devices="tripinfo_WS_3 ssm_WS_3" vType="cars" speedFactor="1.01" vaporized=""/>
    <tripinfo id="EW_1" depart="42.00" departLane="4_1_2" departPos="5.10" departSpeed="0.00" departDelay="0.00" arrival="80.50" arrivalLane="1_2_1" arrivalPos="186.40" arrivalSpeed="11.82" duration="38.50" routeLength="395.15" waitingTime="0.00" waitingCount="0" stopTime="0.00" timeLoss="7.75" rerouteNo="0" devices="tripinfo_EW_1 ssm_EW_1" vType="cars" speedFactor="1.02" vaporized=""/>
    <tripinfo id="WE_2" depart="22.00" departLane="2_1_2" departPos="5.10" departSpeed="0.00" departDelay="0.00" arrival="81.00" arrivalLane="1_4_2" arrivalPos="186.40" arrivalSpeed="12.41" duration="59.00" routeLength="395.15" waitingTime="15.00" waitingCount="1" stopTime="0.00" timeLoss="28.34" rerouteNo="0" devices="tripinfo_WE_2 ssm_WE_2" vType="cars" speedFactor="0.89" vaporized=""/>
    <tripinfo id="EW_2" depart="46.00" departLane="4_1_2" departPos="5.10" departSpeed="0.00" departDelay="0.00" arrival="82.00" arrivalLane="1_2_1" arrivalPos="186.40" arrivalSpeed="11.73" duration="36.00" routeLength="395.15" waitingTime="0.00" waitingCount="0" stopTime="0.00" timeLoss="5.57" rerouteNo="0" devices="tripinfo_EW_2 ssm_EW_2" vType="cars" speedFactor="1.18" vaporized=""/>
    <tripinfo id="WS_6" depart="14.00" departLane="2_1_1" departPos="5.10" departSpeed="0.00" departDelay="0.00" arrival="83.50" arrivalLane="1_3_1" arrivalPos="186.40" arrivalSpeed="11.87" duration="69.50" routeLength="379.43" waitingTime="24.00" waitingCount="1" stopTime="0.00" timeLoss="39.36" rerouteNo="0" devices="tripinfo_WS_6 ssm_WS_6" vType="cars" speedFactor="0.89" vaporized=""/>
    <tripinfo id="WE_3" depart="27.00" departLane="2_1_2" departPos="5.10" departSpeed="0.00" departDelay="0.00" arrival="84.00" arrivalLane="1_4_2" arrivalPos="186.40" arrivalSpeed="12.27" duration="57.00" routeLength="395.15" waitingTime="12.00" waitingCount="1" stopTime="0.00" timeLoss="26.56" rerouteNo="0" devices="tripinfo_WE_3 ssm_WE_3" vType="cars" speedFactor="1.06" vaporized=""/>
    <tripinfo id="WE_4" depart="50.00" departLane="2_1_2" departPos="5.10" departSpeed="0.00" departDelay="0.00" arrival="86.00" arrivalLane="1_4_1" arrivalPos="186.40" arrivalSpeed="11.87" duration="36.00" routeLength="395.15" waitingTime="0.00" waitingCount="0" stopTime="0.00" timeLoss="5.52" rerouteNo="0" devices="tripinfo_WE_4 ssm_WE_4" vType="cars" speedFactor="1.01" vaporized=""/>
    <tripinfo id="WN_7" depart="16.00" departLane="2_1_3" departPos="5.10" departSpeed="0.00" departDelay="0.00" arrival="102.50" arrivalLane="1_5_2" arrivalPos="186.40" arrivalSpeed="12.41" duration="86.50" routeLength="392.22" waitingTime="44.00" waitingCount="1" stopTime="0.00" timeLoss="55.71" rerouteNo="0" devices="tripinfo_WN_7 ssm_WN_7" vType="cars" speedFactor="0.93" vaporized=""/>
    <tripinfo id="ES_24" depart="73.00" departLane="4_1_3" departPos="5.10" departSpeed="0.00" departDelay="0.00" arrival="111.50" arrivalLane="1_3_2" arrivalPos="186.40" arrivalSpeed="11.92" duration="38.50" routeLength="392.22" waitingTime="0.00" waitingCount="0" stopTime="0.00" timeLoss="7.54" rerouteNo="0" devices="tripinfo_ES_24 ssm_ES_24" vType="cars" speedFactor="1.05" vaporized=""/>
    <tripinfo id="SN_12" depart="25.00" departLane="3_1_2" departPos="5.10" departSpeed="0.00" departDelay="0.00" arrival="122.00" arrivalLane="1_5_1" arrivalPos="186.40" arrivalSpeed="11.72" duration="97.00" routeLength="395.15" waitingTime="57.00" waitingCount="1" stopTime="0.00" timeLoss="66.33" rerouteNo="0" devices="tripinfo_SN_12 ssm_SN_12" vType="cars" speedFactor="0.83" vaporized=""/>
    <tripinfo id="NS_11" depart="20.00" departLane="5_1_2" departPos="5.10" departSpeed="0.00" departDelay="0.00" arrival="122.50" arrivalLane="1_3_1" arrivalPos="186.40" arrivalSpeed="12.49" duration="102.50" routeLength="395.15" waitingTime="60.00" waitingCount="1" stopTime="0.00" timeLoss="71.94" rerouteNo="0" devices="tripinfo_NS_11 ssm_NS_11" vType="cars" speedFactor="1.01" vaporized=""/>
    <tripinfo id="NS_13" depart="26.00" departLane="5_1_2" departPos="5.10" departSpeed="0.00" departDelay="0.00" arrival="122.50" arrivalLane="1_3_2" arrivalPos="186.40" arrivalSpeed="12.75" duration="96.50" routeLength="395.15" waitingTime="54.50" waitingCount="1" stopTime="0.00" timeLoss="65.93" rerouteNo="0" devices="tripinfo_NS_13 ssm_NS_13" vType="cars" speedFactor="0.95" vaporized=""/>
    <tripinfo id="SN_15" depart="29.00" departLane="3_1_2" departPos="5.10" departSpeed="0.00" departDelay="0.00" arrival="123.00" arrivalLane="1_5_2" arrivalPos="186.40" arrivalSpeed="12.37" duration="94.00" routeLength="395.15" waitingTime="52.50" waitingCount="1" stopTime="0.00" timeLoss="63.42" rerouteNo="0" devices="tripinfo_SN_15 ssm_SN_15" vType="cars" speedFactor="0.85" vaporized=""/>
    <tripinfo id="SN_17" depart="33.00" departLane="3_1_2" departPos="5.10" departSpeed="0.00" departDelay="0.00" arrival="124.00" arrivalLane="1_5_1" arrivalPos="186.40" arrivalSpeed="12.06" duration="91.00" routeLength="395.15" waitingTime="45.00" waitingCount="1" stopTime="0.00" timeLoss="60.60" rerouteNo="0" devices="tripinfo_SN_17 ssm_SN_17" vType="cars" speedFactor="1.10" vaporized=""/>
    <tripinfo id="NS_14" depart="29.00" departLane="5_1_2" departPos="5.10" departSpeed="0.00" departDelay="2.00" arrival="124.50" arrivalLane="1_3_1" arrivalPos="186.40" arrivalSpeed="11.96" duration="95.50" routeLength="395.15" waitingTime="49.50" waitingCount="1" stopTime="0.00" timeLoss="64.94" rerouteNo="0" devices="tripinfo_NS_14 ssm_NS_14" vType="cars" speedFactor="0.93" vaporized=""/>
    <tripinfo id="NS_16" depart="32.00" departLane="5_1_2" departPos="5.10" departSpeed="0.00" departDelay="2.00" arrival="125.00" arrivalLane="1_3_2" arrivalPos="186.40" arrivalSpeed="12.38" duration="93.00" routeLength="395.15" waitingTime="46.00" waitingCount="1" stopTime="0.00" timeLoss="62.18" rerouteNo="0" devices="tripinfo_NS_16 ssm_NS_16" vType="cars" speedFactor="1.12" vaporized=""/>
    <tripinfo id="SN_18" depart="36.00" departLane="3_1_2" departPos="5.10" departSpeed="0.00" departDelay="0.00" arrival="125.00" arrivalLane="1_5_1" arrivalPos="186.40" arrivalSpeed="11.60" duration="89.00" routeLength="395.15" waitingTime="43.00" waitingCount="1" stopTime="0.00" timeLoss="58.40" rerouteNo="0" devices="tripinfo_SN_18 ssm_SN_18" vType="cars" speedFactor="0.96" vaporized=""/>
    <tripinfo id="NS_22" depart="66.00" departLane="5_1_2" departPos="5.10" departSpeed="0.00" departDelay="0.00" arrival="126.50" arrivalLane="1_3_1" arrivalPos="186.40" arrivalSpeed="12.63" duration="60.50" routeLength="395.15" waitingTime="14.50" waitingCount="1" stopTime="0.00" timeLoss="29.69" rerouteNo="0" devices="tripinfo_NS_22 ssm_NS_22" vType="cars" speedFactor="0.93" vaporized=""/>
    <tripinfo id="SN_20" depart="40.00" departLane="3_1_2" departPos="5.10" departSpeed="0.00" departDelay="0.00" arrival="127.00" arrivalLane="1_5_1" arrivalPos="186.40" arrivalSpeed="11.87" duration="87.00" routeLength="395.15" waitingTime="40.50" waitingCount="1" stopTime="0.00" timeLoss="56.34" rerouteNo="0" devices="tripinfo_SN_20 ssm_SN_20" vType="cars" speedFactor="0.84" vaporized=""/>
    <tripinfo id="NS_26" depart="75.00" departLane="5_1_2" departPos="5.10" departSpeed="0.00" departDelay="0.00" arrival="128.00" arrivalLane="1_3_2" arrivalPos="186.40" arrivalSpeed="11.78" duration="53.00" routeLength="395.15" waitingTime="7.00" waitingCount="1" stopTime="0.00" timeLoss="22.20" rerouteNo="0" devices="tripinfo_NS_26 ssm_NS_26" vType="cars" speedFactor="1.04" vaporized=""/>
    <tripinfo id="SN_25" depart="74.00" departLane="3_1_2" departPos="5.10" departSpeed="0.00" departDelay="0.00" arrival="129.00" arrivalLane="1_5_1" arrivalPos="186.40" arrivalSpeed="12.18" duration="55.00" routeLength="395.15" waitingTime="8.00" waitingCount="1" stopTime="0.00" timeLoss="24.40" rerouteNo="0" devices="tripinfo_SN_25 ssm_SN_25" vType="cars" speedFactor="1.01" vaporized=""/>
    <tripinfo id="NS_32" depart="87.00" departLane="5_1_2" departPos="5.10" departSpeed="0.00" departDelay="0.00" arrival="129.50" arrivalLane="1_3_2" arrivalPos="186.40" arrivalSpeed="12.29" duration="42.50" routeLength="395.15" waitingTime="0.00" waitingCount="0" stopTime="0.00" timeLoss="12.02" rerouteNo="0" devices="tripinfo_NS_32 ssm_NS_32" vType="cars" speedFactor="0.98" vaporized=""/>
    <tripinfo id="SN_28" depart="81.00" departLane="3_1_2" departPos="5.10" departSpeed="0.00" departDelay="0.00" arrival="131.00" arrivalLane="1_5_2" arrivalPos="186.40" arrivalSpeed="12.82" duration="50.00" routeLength="395.15" waitingTime="2.50" waitingCount="1" stopTime="0.00" timeLoss="19.52" rerouteNo="0" devices="tripinfo_SN_28 ssm_SN_28" vType="cars" speedFactor="1.09" vaporized=""/>
    <tripinfo id="NS_29" depart="83.00" departLane="5_1_2" departPos="5.10" departSpeed="0.00" departDelay="0.00" arrival="133.00" arrivalLane="1_3_2" arrivalPos="186.40" arrivalSpeed="12.16" duration="50.00" routeLength="395.15" waitingTime="0.50" waitingCount="1" stopTime="0.00" timeLoss="19.24" rerouteNo="0" devices="tripinfo_NS_29 ssm_NS_29" vType="cars" speedFactor="1.05" vaporized=""/>
    <tripinfo id="SN_33" depart="90.00" departLane="3_1_2" departPos="5.10" departSpeed="0.00" departDelay="0.00" arrival="133.00" arrivalLane="1_5_1" arrivalPos="186.40" arrivalSpeed="12.42" duration="43.00" routeLength="395.15" waitingTime="0.00" waitingCount="0" stopTime="0.00" timeLoss="12.43" rerouteNo="0" devices="tripinfo_SN_33 ssm_SN_33" vType="cars" speedFactor="0.96" vaporized=""/>
    <tripinfo id="NW_21" depart="53.00" departLane="5_1_1" departPos="5.10" departSpeed="0.00" departDelay="0.00" arrival="135.00" arrivalLane="1_2_1" arrivalPos="186.40" arrivalSpeed="11.82" duration="82.00" routeLength="379.43" waitingTime="33.00" waitingCount="2" stopTime="0.00" timeLoss="51.48" rerouteNo="0" devices="tripinfo_NW_21 ssm_NW_21" vType="cars" speedFactor="0.79" vaporized=""/>
    <tripinfo id="SN_34" depart="97.00" departLane="3_1_2" departPos="5.10" departSpeed="0.00" departDelay="0.00" arrival="135.00" arrivalLane="1_5_1" arrivalPos="186.40" arrivalSpeed="12.48" duration="38.00" routeLength="395.15" waitingTime="0.00" waitingCount="0" stopTime="0.00" timeLoss="7.21" rerouteNo="0" devices="tripinfo_SN_34 ssm_SN_34" vType="cars" speedFactor="1.25" vaporized=""/>
    <tripinfo id="NW_23" depart="69.00" departLane="5_1_1" departPos="5.10" departSpeed="0.00" departDelay="0.00" arrival="137.00" arrivalLane="1_2_2" arrivalPos="186.40" arrivalSpeed="11.70" duration="68.00" routeLength="379.43" waitingTime="14.50" waitingCount="2" stopTime="0.00" timeLoss="38.14" rerouteNo="0" devices="tripinfo_NW_23 ssm_NW_23" vType="cars" speedFactor="1.06" vaporized=""/>
    <tripinfo id="SN_31" depart="86.50" departLane="3_1_2" departPos="5.10" departSpeed="0.00" departDelay="2.50" arrival="138.00" arrivalLane="1_5_2" arrivalPos="186.40" arrivalSpeed="12.61" duration="51.50" routeLength="395.15" waitingTime="0.00" waitingCount="0" stopTime="0.00" timeLoss="21.03" rerouteNo="0" devices="tripinfo_SN_31 ssm_SN_31" vType="cars" speedFactor="0.88" vaporized=""/>
    <tripinfo id="NW_36" depart="101.00" departLane="5_1_1" departPos="5.10" departSpeed="0.00" departDelay="0.00" arrival="138.50" arrivalLane="1_2_1" arrivalPos="186.40" arrivalSpeed="12.03" duration="37.50" routeLength="379.43" waitingTime="0.00" waitingCount="0" stopTime="0.00" timeLoss="7.44" rerouteNo="0" devices="tripinfo_NW_36 ssm_NW_36" vType="cars" speedFactor="0.99" vaporized=""/>
    <tripinfo id="SE_19" depart="39.00" departLane="3_1_1" departPos="5.10" departSpeed="0.00" departDelay="0.00" arrival="142.50" arrivalLane="1_4_1" arrivalPos="186.40" arrivalSpeed="12.48" duration="103.50" routeLength="379.42" waitingTime="53.50" waitingCount="2" stopTime="0.00" timeLoss="73.42" rerouteNo="0" devices="tripinfo_SE_19 ssm_SE_19" vType="cars" speedFactor="0.92" vaporized=""/>
    <tripinfo id="SE_27" depart="78.00" departLane="3_1_1" departPos="5.10" departSpeed="0.00" departDelay="0.00" arrival="144.50" arrivalLane="1_4_1" arrivalPos="186.40" arrivalSpeed="12.17" duration="66.50" routeLength="379.42" waitingTime="14.50" waitingCount="2" stopTime="0.00" timeLoss="36.76" rerouteNo="0" devices="tripinfo_SE_27 ssm_SE_27" vType="cars" speedFactor="1.13" vaporized=""/>
    <tripinfo id="WE_6" depart="78.00" departLane="2_1_2" departPos="5.10" departSpeed="0.00" departDelay="1.00" arrival="164.00" arrivalLane="1_4_2" arrivalPos="186.40" arrivalSpeed="12.63" duration="86.00" routeLength="395.15" waitingTime="46.50" waitingCount="1" stopTime="0.00" timeLoss="55.47" rerouteNo="0" devices="tripinfo_WE_6 ssm_WE_6" vType="cars" speedFactor="1.11" vaporized=""/>
    <tripinfo id="EW_3" depart="59.00" departLane="4_1_2" departPos="5.10" departSpeed="0.00" departDelay="0.00" arrival="164.50" arrivalLane="1_2_1" arrivalPos="186.40" arrivalSpeed="12.65" duration="105.50" routeLength="395.15" waitingTime="63.50" waitingCount="1" stopTime="0.00" timeLoss="74.81" rerouteNo="0" devices="tripinfo_EW_3 ssm_EW_3" vType="cars" speedFactor="0.98" vaporized=""/>
    <tripinfo id="EW_4" depart="62.00" departLane="4_1_2" departPos="5.10" departSpeed="0.00" departDelay="0.00" arrival="164.50" arrivalLane="1_2_2" arrivalPos="186.40" arrivalSpeed="11.90" duration="102.50" routeLength="395.15" waitingTime="61.00" waitingCount="1" stopTime="0.00" timeLoss="71.68" rerouteNo="0" devices="tripinfo_EW_4 ssm_EW_4" vType="cars" speedFactor="0.95" vaporized=""/>
    <tripinfo id="WE_5" depart="75.00" departLane="2_1_2" departPos="5.10" departSpeed="0.00" departDelay="0.00" arrival="164.50" arrivalLane="1_4_1" arrivalPos="186.40" arrivalSpeed="12.20" duration="89.50" routeLength="395.15" waitingTime="48.00" waitingCount="1" stopTime="0.00" timeLoss="59.10" rerouteNo="0" devices="tripinfo_WE_5 ssm_WE_5" vType="cars" speedFactor="1.02" vaporized=""/>
    <tripinfo id="EW_6" depart="92.00" departLane="4_1_2" departPos="5.10" departSpeed="0.00" departDelay="0.00" arrival="166.00" arrivalLane="1_2_1" arrivalPos="186.40" arrivalSpeed="12.91" duration="74.00" routeLength="395.15" waitingTime="25.50" waitingCount="1" stopTime="0.00" timeLoss="43.58" rerouteNo="0" devices="tripinfo_EW_6 ssm_EW_6" vType="cars" speedFactor="1.14" vaporized=""/>
    <tripinfo id="EW_5" depart="76.00" departLane="4_1_2" departPos="5.10" departSpeed="0.00" departDelay="0.00" arrival="166.50" arrivalLane="1_2_2" arrivalPos="186.40" arrivalSpeed="12.40" duration="90.50" routeLength="395.15" waitingTime="45.50" waitingCount="1" stopTime="0.00" timeLoss="59.82" rerouteNo="0" devices="tripinfo_EW_5 ssm_EW_5" vType="cars" speedFactor="1.08" vaporized=""/>
    <tripinfo id="WE_7" depart="89.00" departLane="2_1_2" departPos="5.10" departSpeed="0.00" departDelay="0.00" arrival="166.50" arrivalLane="1_4_1" arrivalPos="186.40" arrivalSpeed="12.63" duration="77.50" routeLength="395.15" waitingTime="33.00" waitingCount="1" stopTime="0.00" timeLoss="47.10" rerouteNo="0" devices="tripinfo_WE_7 ssm_WE_7" vType="cars" speedFactor="0.83" vaporized=""/>
    <tripinfo id="WE_8" depart="92.00" departLane="2_1_2" departPos="5.10" departSpeed="0.00" departDelay="0.00" arrival="166.50" arrivalLane="1_4_2" arrivalPos="186.40" arrivalSpeed="12.09" duration="74.50" routeLength="395.15" waitingTime="29.50" waitingCount="1" stopTime="0.00" timeLoss="43.68" rerouteNo="0" devices="tripinfo_WE_8 ssm_WE_8" vType="cars" speedFactor="0.97" vaporized=""/>
    <tripinfo id="WE_9" depart="106.00" departLane="2_1_2" departPos="5.10" departSpeed="0.00" departDelay="0.00" arrival="168.50" arrivalLane="1_4_2" arrivalPos="186.40" arrivalSpeed="12.97" duration="62.50" routeLength="395.15" waitingTime="17.00" waitingCount="1" stopTime="0.00" timeLoss="31.70" rerouteNo="0" devices="tripinfo_WE_9 ssm_WE_9" vType="cars" speedFactor="1.12" vaporized=""/>
    <tripinfo id="EW_7" depart="111.00" departLane="4_1_2" departPos="5.10" departSpeed="0.00" departDelay="0.00" arrival="168.50" arrivalLane="1_2_2" arrivalPos="186.40" arrivalSpeed="12.15" duration="57.50" routeLength="395.15" waitingTime="11.50" waitingCount="1" stopTime="0.00" timeLoss="26.68" rerouteNo="0" devices="tripinfo_EW_7 ssm_EW_7" vType="cars" speedFactor="0.99" vaporized=""/>
    <tripinfo id="WE_11" depart="118.50" departLane="2_1_2" departPos="5.10" departSpeed="0.00" departDelay="1.50" arrival="169.50" arrivalLane="1_4_1" arrivalPos="186.40" arrivalSpeed="12.41" duration="51.00" routeLength="395.15" waitingTime="2.00" waitingCount="1" stopTime="0.00" timeLoss="20.47" rerouteNo="0" devices="tripinfo_WE_11 ssm_WE_11" vType="cars" speedFactor="1.04" vaporized=""/>
    <tripinfo id="EW_8" depart="123.00" departLane="4_1_2" departPos="5.10" departSpeed="0.00" departDelay="0.00" arrival="170.00" arrivalLane="1_2_1" arrivalPos="186.40" arrivalSpeed="12.11" duration="47.00" routeLength="395.15" waitingTime="0.50" waitingCount="1" stopTime="0.00" timeLoss="16.55" rerouteNo="0" devices="tripinfo_EW_8 ssm_EW_8" vType="cars" speedFactor="1.00" vaporized=""/>
    <tripinfo id="WE_10" depart="116.00" departLane="2_1_2" departPos="5.10" departSpeed="0.00" departDelay="0.00" arrival="170.50" arrivalLane="1_4_2" arrivalPos="186.40" arrivalSpeed="12.87" duration="54.50" routeLength="395.15" waitingTime="9.00" waitingCount="1" stopTime="0.00" timeLoss="23.70" rerouteNo="0" devices="tripinfo_WE_10 ssm_WE_10" vType="cars" speedFactor="0.98" vaporized=""/>
    <tripinfo id="WE_12" depart="121.00" departLane="2_1_2" departPos="5.10" departSpeed="0.00" departDelay="3.00" arrival="172.50" arrivalLane="1_4_1" arrivalPos="186.40" arrivalSpeed="12.89" duration="51.50" routeLength="395.15" waitingTime="1.00" waitingCount="1" stopTime="0.00" timeLoss="20.75" rerouteNo="0" devices="tripinfo_WE_12 ssm_WE_12" vType="cars" speedFactor="0.84" vaporized=""/>
    <tripinfo id="EW_9" depart="128.00" departLane="4_1_2" departPos="5.10" departSpeed="0.00" departDelay="0.00" arrival="172.50" arrivalLane="1_2_2" arrivalPos="186.40" arrivalSpeed="12.60" duration="44.50" routeLength="395.15" waitingTime="0.00" waitingCount="0" stopTime="0.00" timeLoss="14.08" rerouteNo="0" devices="tripinfo_EW_9 ssm_EW_9" vType="cars" speedFactor="1.09" vaporized=""/>
    <tripinfo id="WE_13" depart="123.50" departLane="2_1_2" departPos="5.10" departSpeed="0.00" departDelay="4.50" arrival="173.00" arrivalLane="1_4_2" arrivalPos="186.40" arrivalSpeed="12.69" duration="49.50" routeLength="395.15" waitingTime="0.00" waitingCount="0" stopTime="0.00" timeLoss="18.89" rerouteNo="0" devices="tripinfo_WE_13 ssm_WE_13" vType="cars" speedFactor="1.14" vaporized=""/>
    <tripinfo id="EN_39" depart="109.00" departLane="4_1_1" departPos="5.10" departSpeed="0.00" departDelay="0.00" arrival="175.00" arrivalLane="1_5_1" arrivalPos="186.40" arrivalSpeed="11.63" duration="66.00" routeLength="379.42" waitingTime="17.50" waitingCount="2" stopTime="0.00" timeLoss="35.57" rerouteNo="0" devices="tripinfo_EN_39 ssm_EN_39" vType="cars" speedFactor="0.86" vaporized=""/>
    <tripinfo id="WE_14" depart="126.50" departLane="2_1_2" departPos="5.10" departSpeed="0.00" departDelay="4.50" arrival="175.00" arrivalLane="1_4_1" arrivalPos="186.40" arrivalSpeed="12.30" duration="48.50" routeLength="395.15" waitingTime="0.00" waitingCount="0" stopTime="0.00" timeLoss="17.98" rerouteNo="0" devices="tripinfo_WE_14 ssm_WE_14" vType="cars" speedFactor="0.95" vaporized=""/>
    <tripinfo id="WE_15" depart="129.50" departLane="2_1_2" departPos="5.10" departSpeed="0.00" departDelay="4.50" arrival="178.00" arrivalLane="1_4_2" arrivalPos="186.40" arrivalSpeed="12.40" duration="48.50" routeLength="395.15" waitingTime="0.00" waitingCount="0" stopTime="0.00" timeLoss="18.06" rerouteNo="0" devices="tripinfo_WE_15 ssm_WE_15" vType="cars" speedFactor="1.10" vaporized=""/>
    <personinfo id="person_SN_e.2" depart="14.00" type="DEFAULT_PEDTYPE" speedFactor="1.13" duration="166.00" waitingTime="0.00" timeLoss="25.48" traveltime="166.00">
        <walk depart="14.00" departPos="100.00" arrival="180.00" arrivalPos="93.20" duration="166.00" routeLength="221.24" timeLoss="25.48" maxSpeed="1.57"/>
    </personinfo>
    <personinfo id="person_SN_e.0" depart="5.50" type="DEFAULT_PEDTYPE" speedFactor="1.11" duration="177.50" waitingTime="0.00" timeLoss="33.49" traveltime="177.50">
        <walk depart="5.50" departPos="100.00" arrival="183.00" arrivalPos="93.20" duration="177.50" routeLength="221.24" timeLoss="33.49" maxSpeed="1.54"/>
    </personinfo>
    <tripinfo id="WS_48" depart="134.00" departLane="2_1_1" departPos="5.10" departSpeed="0.00" departDelay="0.00" arrival="186.00" arrivalLane="1_3_1" arrivalPos="186.40" arrivalSpeed="12.51" duration="52.00" routeLength="379.43" waitingTime="10.50" waitingCount="1" stopTime="0.00" timeLoss="22.09" rerouteNo="0" devices="tripinfo_WS_48 ssm_WS_48" vType="cars" speedFactor="0.99" vaporized=""/>
    <tripinfo id="ES_44" depart="128.00" departLane="4_1_3" departPos="5.10" departSpeed="0.00" departDelay="0.00" arrival="187.00" arrivalLane="1_3_2" arrivalPos="186.40" arrivalSpeed="11.95" duration="59.00" routeLength="392.22" waitingTime="17.50" waitingCount="1" stopTime="0.00" timeLoss="28.16" rerouteNo="0" devices="tripinfo_ES_44 ssm_ES_44" vType="cars" speedFactor="0.99" vaporized=""/>
    <tripinfo id="WN_35" depart="99.00" departLane="2_1_3" departPos="5.10" departSpeed="0.00" departDelay="0.00" arrival="187.50" arrivalLane="1_5_2" arrivalPos="186.40" arrivalSpeed="12.75" duration="88.50" routeLength="392.22" waitingTime="47.00" waitingCount="1" stopTime="0.00" timeLoss="57.53" rerouteNo="0" devices="tripinfo_WN_35 ssm_WN_35" vType="cars" speedFactor="0.91" vaporized=""/>
    <tripinfo id="ES_53" depart="148.00" departLane="4_1_3" departPos="5.10" departSpeed="0.00" departDelay="0.00" arrival="189.00" arrivalLane="1_3_2" arrivalPos="186.40" arrivalSpeed="12.96" duration="41.00" routeLength="392.22" waitingTime="0.00" waitingCount="0" stopTime="0.00" timeLoss="10.26" rerouteNo="0" devices="tripinfo_ES_53 ssm_ES_53" vType="cars" speedFactor="1.10" vaporized=""/>
    <tripinfo id="ES_58" depart="155.00" departLane="4_1_3" departPos="5.10" departSpeed="0.00" departDelay="0.00" arrival="192.00" arrivalLane="1_3_2" arrivalPos="186.40" arrivalSpeed="12.76" duration="37.00" routeLength="392.22" waitingTime="0.00" waitingCount="0" stopTime="0.00" timeLoss="6.40" rerouteNo="0" devices="tripinfo_ES_58 ssm_ES_58" vType="cars" speedFactor="1.09" vaporized=""/>
    <personinfo id="person_NS_w.2" depart="37.00" type="DEFAULT_PEDTYPE" speedFactor="1.10" duration="155.50" waitingTime="0.00" timeLoss="11.31" traveltime="155.50">
        <walk depart="37.00" departPos="100.00" arrival="192.50" arrivalPos="93.20" duration="155.50" routeLength="221.25" timeLoss="11.31" maxSpeed="1.53"/>
    </personinfo>
    <personinfo id="person_NS_w.0" depart="2.50" type="DEFAULT_PEDTYPE" speedFactor="0.97" duration="195.00" waitingTime="0.00" timeLoss="31.00" traveltime="195.00">
        <walk depart="2.50" departPos="100.00" arrival="197.50" arrivalPos="93.20" duration="195.00" routeLength="221.25" timeLoss="31.00" maxSpeed="1.35"/>
    </personinfo>
    <personinfo id="person_SN_e.1" depart="6.00" type="DEFAULT_PEDTYPE" speedFactor="0.88" duration="198.50" waitingTime="0.00" timeLoss="17.14" traveltime="198.50">
        <walk depart="6.00" departPos="100.00" arrival="204.50" arrivalPos="93.20" duration="198.50" routeLength="221.24" timeLoss="17.14" maxSpeed="1.22"/>
    </personinfo>