<?xml version="1.0" encoding="UTF-8"?>

<!-- generated on 2025-02-24 16:29:21 by Eclipse SUMO GUI Version 1.20.0
<configuration xmlns:xsi="http://www.w3.org/2001/XMLSchema-instance" xsi:noNamespaceSchemaLocation="http://sumo.dlr.de/xsd/sumoConfiguration.xsd">

    <input>
        <net-file value="/home/naderian/Desktop/Shakiba/CET593/environment/network_model/single_intersection_pedestrian_X.net.xml"/>
        <route-files value="/home/naderian/Desktop/Shakiba/CET593/environment/network_model/single_intersection.rou.xml"/>
        <additional-files value="/home/naderian/Desktop/Shakiba/CET593/environment/network_model/single_intersection.add.xml"/>
    </input>

    <output>
        <queue-output value="/home/naderian/Desktop/Shakiba/CET593/environment/simulation_data/single_intersection/queues_multi_scale_symmetric_pene_25.xml"/>
        <tripinfo-output value="/home/naderian/Desktop/Shakiba/CET593/environment/simulation_data/single_intersection/tripinfo_multi_scale_symmetric_pene_25.xml"/>
    </output>

    <time>
        <begin value="0"/>
        <step-length value="0.5"/>
    </time>

    <processing>
        <waiting-time-memory value="1000"/>
    </processing>

    <report>
        <verbose value="true"/>
        <no-step-log value="true"/>
    </report>

    <traci_server>
        <remote-port value="44773"/>
    </traci_server>

    <gui_only>
        <start value="true"/>
    </gui_only>

</configuration>
-->

<tripinfos xmlns:xsi="http://www.w3.org/2001/XMLSchema-instance" xsi:noNamespaceSchemaLocation="http://sumo.dlr.de/xsd/tripinfo_file.xsd">
    <tripinfo id="SN_0" depart="0.00" departLane="3_1_2" departPos="5.10" departSpeed="0.00" departDelay="0.00" arrival="35.50" arrivalLane="1_5_1" arrivalPos="186.40" arrivalSpeed="11.82" duration="35.50" routeLength="395.15" waitingTime="0.00" waitingCount="0" stopTime="0.00" timeLoss="4.99" rerouteNo="0" devices="tripinfo_SN_0" vType="cars" speedFactor="0.97" vaporized=""/>
    <tripinfo id="NS_1" depart="1.00" departLane="5_1_2" departPos="5.10" departSpeed="0.00" departDelay="0.00" arrival="38.00" arrivalLane="1_3_1" arrivalPos="186.40" arrivalSpeed="12.65" duration="37.00" routeLength="395.15" waitingTime="0.00" waitingCount="0" stopTime="0.00" timeLoss="6.30" rerouteNo="0" devices="tripinfo_NS_1" vType="cars" speedFactor="1.11" vaporized=""/>
    <tripinfo id="SN_2" depart="5.00" departLane="3_1_2" departPos="5.10" departSpeed="0.00" departDelay="0.00" arrival="40.00" arrivalLane="1_5_1" arrivalPos="186.40" arrivalSpeed="11.68" duration="35.00" routeLength="395.15" waitingTime="0.00" waitingCount="0" stopTime="0.00" timeLoss="4.48" rerouteNo="0" devices="tripinfo_SN_2" vType="cars" speedFactor="0.86" vaporized=""/>
    <tripinfo id="WE_1" depart="10.00" departLane="2_1_2" departPos="5.10" departSpeed="0.00" departDelay="0.00" arrival="54.50" arrivalLane="1_4_2" arrivalPos="186.40" arrivalSpeed="12.38" duration="44.50" routeLength="395.15" waitingTime="4.50" waitingCount="1" stopTime="0.00" timeLoss="13.65" rerouteNo="0" devices="tripinfo_WE_1" vType="cars" speedFactor="1.06" vaporized=""/>
    <tripinfo id="WE_0" depart="1.00" departLane="2_1_2" departPos="5.10" departSpeed="0.00" departDelay="0.00" arrival="55.00" arrivalLane="1_4_1" arrivalPos="186.40" arrivalSpeed="12.26" duration="54.00" routeLength="395.15" waitingTime="12.50" waitingCount="1" stopTime="0.00" timeLoss="23.45" rerouteNo="0" devices="tripinfo_WE_0" vType="cars" speedFactor="0.91" vaporized=""/>
    <tripinfo id="WS_3" depart="7.00" departLane="2_1_1" departPos="5.10" departSpeed="0.00" departDelay="0.00" arrival="56.00" arrivalLane="1_3_1" arrivalPos="186.40" arrivalSpeed="12.79" duration="49.00" routeLength="379.43" waitingTime="5.00" waitingCount="1" stopTime="0.00" timeLoss="18.69" rerouteNo="0" devices="tripinfo_WS_3" vType="cars" speedFactor="0.95" vaporized=""/>
    <tripinfo id="WE_2" depart="12.50" departLane="2_1_2" departPos="5.10" departSpeed="0.00" departDelay="0.50" arrival="56.00" arrivalLane="1_4_2" arrivalPos="186.40" arrivalSpeed="13.00" duration="43.50" routeLength="395.15" waitingTime="0.00" waitingCount="0" stopTime="0.00" timeLoss="12.64" rerouteNo="0" devices="tripinfo_WE_2" vType="cars" speedFactor="0.94" vaporized=""/>
    <tripinfo id="EW_0" depart="19.00" departLane="4_1_2" departPos="5.10" departSpeed="0.00" departDelay="0.00" arrival="58.00" arrivalLane="1_2_1" arrivalPos="186.40" arrivalSpeed="11.00" duration="39.00" routeLength="395.15" waitingTime="0.00" waitingCount="0" stopTime="0.00" timeLoss="8.51" rerouteNo="0" devices="tripinfo_EW_0" vType="cars" speedFactor="1.05" vaporized=""/>
    <tripinfo id="EW_1" depart="22.00" departLane="4_1_2" departPos="5.10" departSpeed="0.00" departDelay="1.00" arrival="64.00" arrivalLane="1_2_1" arrivalPos="186.40" arrivalSpeed="13.00" duration="42.00" routeLength="395.15" waitingTime="2.50" waitingCount="1" stopTime="0.00" timeLoss="11.55" rerouteNo="0" devices="tripinfo_EW_1" vType="cars" speedFactor="1.01" vaporized=""/>
    <tripinfo id="ES_4" depart="14.00" departLane="4_1_3" departPos="5.10" departSpeed="0.00" departDelay="0.00" arrival="68.00" arrivalLane="1_3_2" arrivalPos="186.40" arrivalSpeed="11.91" duration="54.00" routeLength="392.22" waitingTime="11.50" waitingCount="1" stopTime="0.00" timeLoss="22.86" rerouteNo="0" devices="tripinfo_ES_4" vType="cars" speedFactor="0.97" vaporized=""/>
    <tripinfo id="ES_6" depart="31.00" departLane="4_1_3" departPos="5.10" departSpeed="0.00" departDelay="0.00" arrival="69.50" arrivalLane="1_3_2" arrivalPos="186.40" arrivalSpeed="12.75" duration="38.50" routeLength="392.22" waitingTime="0.00" waitingCount="0" stopTime="0.00" timeLoss="7.80" rerouteNo="0" devices="tripinfo_ES_6" vType="cars" speedFactor="1.07" vaporized=""/>
    <tripinfo id="NS_5" depart="22.00" departLane="5_1_2" departPos="5.10" departSpeed="0.00" departDelay="0.00" arrival="81.00" arrivalLane="1_3_1" arrivalPos="186.40" arrivalSpeed="13.00" duration="59.00" routeLength="395.15" waitingTime="18.00" waitingCount="1" stopTime="0.00" timeLoss="28.55" rerouteNo="0" devices="tripinfo_NS_5" vType="cars" speedFactor="1.01" vaporized=""/>
    <tripinfo id="NW_7" depart="37.00" departLane="5_1_1" departPos="5.10" departSpeed="0.00" departDelay="0.00" arrival="81.50" arrivalLane="1_2_1" arrivalPos="186.40" arrivalSpeed="13.00" duration="44.50" routeLength="379.43" waitingTime="1.00" waitingCount="2" stopTime="0.00" timeLoss="14.81" rerouteNo="0" devices="tripinfo_NW_7" vType="cars" speedFactor="1.13" vaporized=""/>
    <tripinfo id="SN_10" depart="48.00" departLane="3_1_2" departPos="5.10" departSpeed="0.00" departDelay="0.00" arrival="83.50" arrivalLane="1_5_1" arrivalPos="186.40" arrivalSpeed="12.39" duration="35.50" routeLength="395.15" waitingTime="0.00" waitingCount="0" stopTime="0.00" timeLoss="5.04" rerouteNo="0" devices="tripinfo_SN_10" vType="cars" speedFactor="1.02" vaporized=""/>
    <tripinfo id="NW_9" depart="41.00" departLane="5_1_1" departPos="5.10" departSpeed="0.00" departDelay="0.00" arrival="86.50" arrivalLane="1_2_1" arrivalPos="186.40" arrivalSpeed="12.60" duration="45.50" routeLength="379.43" waitingTime="0.00" waitingCount="0" stopTime="0.00" timeLoss="15.52" rerouteNo="0" devices="tripinfo_NW_9" vType="cars" speedFactor="0.91" vaporized=""/>
    <tripinfo id="WE_3" depart="43.00" departLane="2_1_2" departPos="5.10" departSpeed="0.00" departDelay="0.00" arrival="101.00" arrivalLane="1_4_1" arrivalPos="186.40" arrivalSpeed="12.69" duration="58.00" routeLength="395.15" waitingTime="17.00" waitingCount="1" stopTime="0.00" timeLoss="27.15" rerouteNo="0" devices="tripinfo_WE_3" vType="cars" speedFactor="1.05" vaporized=""/>
    <tripinfo id="EW_2" depart="46.00" departLane="4_1_2" departPos="5.10" departSpeed="0.00" departDelay="0.00" arrival="101.00" arrivalLane="1_2_1" arrivalPos="186.40" arrivalSpeed="11.74" duration="55.00" routeLength="395.15" waitingTime="13.00" waitingCount="1" stopTime="0.00" timeLoss="24.39" rerouteNo="0" devices="tripinfo_EW_2" vType="cars" speedFactor="1.05" vaporized=""/>
    <tripinfo id="WE_4" depart="67.00" departLane="2_1_2" departPos="5.10" departSpeed="0.00" departDelay="0.00" arrival="102.50" arrivalLane="1_4_1" arrivalPos="186.40" arrivalSpeed="13.00" duration="35.50" routeLength="395.15" waitingTime="0.00" waitingCount="0" stopTime="0.00" timeLoss="4.80" rerouteNo="0" devices="tripinfo_WE_4" vType="cars" speedFactor="0.96" vaporized=""/>
    <tripinfo id="EW_3" depart="68.00" departLane="4_1_2" departPos="5.10" departSpeed="0.00" departDelay="0.00" arrival="103.00" arrivalLane="1_2_1" arrivalPos="186.40" arrivalSpeed="11.61" duration="35.00" routeLength="395.15" waitingTime="0.00" waitingCount="0" stopTime="0.00" timeLoss="4.34" rerouteNo="0" devices="tripinfo_EW_3" vType="cars" speedFactor="0.98" vaporized=""/>
    <tripinfo id="WE_5" depart="86.00" departLane="2_1_2" departPos="5.10" departSpeed="0.00" departDelay="0.00" arrival="122.00" arrivalLane="1_4_1" arrivalPos="186.40" arrivalSpeed="12.29" duration="36.00" routeLength="395.15" waitingTime="0.00" waitingCount="0" stopTime="0.00" timeLoss="5.59" rerouteNo="0" devices="tripinfo_WE_5" vType="cars" speedFactor="0.99" vaporized=""/>
    <tripinfo id="SN_11" depart="70.00" departLane="3_1_2" departPos="5.10" departSpeed="0.00" departDelay="0.00" arrival="130.00" arrivalLane="1_5_1" arrivalPos="186.40" arrivalSpeed="13.00" duration="60.00" routeLength="395.15" waitingTime="20.50" waitingCount="1" stopTime="0.00" timeLoss="29.55" rerouteNo="0" devices="tripinfo_SN_11" vType="cars" speedFactor="1.02" vaporized=""/>
    <tripinfo id="NS_12" depart="80.00" departLane="5_1_2" departPos="5.10" departSpeed="0.00" departDelay="0.00" arrival="131.50" arrivalLane="1_3_1" arrivalPos="186.40" arrivalSpeed="12.26" duration="51.50" routeLength="395.15" waitingTime="11.50" waitingCount="1" stopTime="0.00" timeLoss="21.01" rerouteNo="0" devices="tripinfo_NS_12" vType="cars" speedFactor="1.07" vaporized=""/>
    <tripinfo id="NS_15" depart="92.00" departLane="5_1_2" departPos="5.10" departSpeed="0.00" departDelay="0.00" arrival="132.50" arrivalLane="1_3_2" arrivalPos="186.40" arrivalSpeed="12.84" duration="40.50" routeLength="395.15" waitingTime="0.00" waitingCount="0" stopTime="0.00" timeLoss="9.69" rerouteNo="0" devices="tripinfo_NS_15" vType="cars" speedFactor="1.01" vaporized=""/>
    <tripinfo id="SN_14" depart="90.00" departLane="3_1_2" departPos="5.10" departSpeed="0.00" departDelay="0.00" arrival="133.50" arrivalLane="1_5_1" arrivalPos="186.40" arrivalSpeed="12.00" duration="43.50" routeLength="395.15" waitingTime="2.50" waitingCount="1" stopTime="0.00" timeLoss="12.73" rerouteNo="0" devices="tripinfo_SN_14" vType="cars" speedFactor="1.05" vaporized=""/>
    <tripinfo id="NS_18" depart="99.00" departLane="5_1_2" departPos="5.10" departSpeed="0.00" departDelay="0.00" arrival="134.50" arrivalLane="1_3_1" arrivalPos="186.40" arrivalSpeed="13.00" duration="35.50" routeLength="395.15" waitingTime="0.00" waitingCount="0" stopTime="0.00" timeLoss="4.88" rerouteNo="0" devices="tripinfo_NS_18" vType="cars" speedFactor="0.84" vaporized=""/>
    <tripinfo id="SN_16" depart="93.00" departLane="3_1_2" departPos="5.10" departSpeed="0.00" departDelay="0.00" arrival="135.00" arrivalLane="1_5_1" arrivalPos="186.40" arrivalSpeed="12.46" duration="42.00" routeLength="395.15" waitingTime="0.00" waitingCount="0" stopTime="0.00" timeLoss="11.51" rerouteNo="0" devices="tripinfo_SN_16" vType="cars" speedFactor="0.91" vaporized=""/>
    <tripinfo id="SE_19" depart="100.00" departLane="3_1_1" departPos="5.10" departSpeed="0.00" departDelay="0.00" arrival="143.50" arrivalLane="1_4_1" arrivalPos="186.40" arrivalSpeed="11.71" duration="43.50" routeLength="379.42" waitingTime="3.50" waitingCount="1" stopTime="0.00" timeLoss="13.18" rerouteNo="0" devices="tripinfo_SE_19" vType="cars" speedFactor="0.92" vaporized=""/>
    <tripinfo id="SN_20" depart="109.00" departLane="3_1_2" departPos="5.10" departSpeed="0.00" departDelay="0.00" arrival="146.00" arrivalLane="1_5_1" arrivalPos="186.40" arrivalSpeed="12.09" duration="37.00" routeLength="395.15" waitingTime="0.00" waitingCount="0" stopTime="0.00" timeLoss="6.27" rerouteNo="0" devices="tripinfo_SN_20" vType="cars" speedFactor="0.89" vaporized=""/>
    <tripinfo id="NS_24" depart="125.00" departLane="5_1_2" departPos="5.10" departSpeed="0.00" departDelay="0.00" arrival="160.50" arrivalLane="1_3_1" arrivalPos="186.40" arrivalSpeed="12.45" duration="35.50" routeLength="395.15" waitingTime="0.00" waitingCount="0" stopTime="0.00" timeLoss="4.86" rerouteNo="0" devices="tripinfo_NS_24" vType="cars" speedFactor="1.22" vaporized=""/>
    <tripinfo id="SN_25" depart="126.00" departLane="3_1_2" departPos="5.10" departSpeed="0.00" departDelay="0.00" arrival="161.00" arrivalLane="1_5_1" arrivalPos="186.40" arrivalSpeed="13.00" duration="35.00" routeLength="395.15" waitingTime="0.00" waitingCount="0" stopTime="0.00" timeLoss="4.29" rerouteNo="0" devices="tripinfo_SN_25" vType="cars" speedFactor="0.91" vaporized=""/>
    <tripinfo id="NS_26" depart="130.00" departLane="5_1_2" departPos="5.10" departSpeed="0.00" departDelay="0.00" arrival="166.50" arrivalLane="1_3_1" arrivalPos="186.40" arrivalSpeed="12.47" duration="36.50" routeLength="395.15" waitingTime="0.00" waitingCount="0" stopTime="0.00" timeLoss="5.69" rerouteNo="0" devices="tripinfo_NS_26" vType="cars" speedFactor="1.04" vaporized=""/>
    <tripinfo id="SN_27" depart="130.00" departLane="3_1_2" departPos="5.10" departSpeed="0.00" departDelay="0.00" arrival="166.50" arrivalLane="1_5_1" arrivalPos="186.40" arrivalSpeed="11.58" duration="36.50" routeLength="395.15" waitingTime="0.00" waitingCount="0" stopTime="0.00" timeLoss="5.87" rerouteNo="0" devices="tripinfo_SN_27" vType="cars" speedFactor="1.11" vaporized=""/>
    <personinfo id="person_EW_n.0" depart="20.64" type="DEFAULT_PEDTYPE" speedFactor="1.09" duration="154.00" waitingTime="0.00" timeLoss="8.06" traveltime="154.00">
        <walk depart="21.00" departPos="100.00" arrival="175.00" arrivalPos="93.20" duration="154.00" routeLength="221.32" timeLoss="8.06" maxSpeed="1.52"/>
    </personinfo>
    <personinfo id="person_WE_s.0" depart="1.92" type="DEFAULT_PEDTYPE" speedFactor="0.98" duration="174.00" waitingTime="0.00" timeLoss="10.71" traveltime="174.00">
        <walk depart="2.00" departPos="100.00" arrival="176.00" arrivalPos="93.20" duration="174.00" routeLength="221.17" timeLoss="10.71" maxSpeed="1.35"/>
    </personinfo>
    <tripinfo id="WE_6" depart="88.50" departLane="2_1_2" departPos="5.10" departSpeed="0.00" departDelay="1.50" arrival="177.00" arrivalLane="1_4_1" arrivalPos="186.40" arrivalSpeed="13.00" duration="88.50" routeLength="395.15" waitingTime="48.50" waitingCount="1" stopTime="0.00" timeLoss="58.05" rerouteNo="0" devices="tripinfo_WE_6" vType="cars" speedFactor="0.93" vaporized=""/>
    <tripinfo id="EN_21" depart="111.00" departLane="4_1_1" departPos="5.10" departSpeed="0.00" departDelay="0.00" arrival="178.50" arrivalLane="1_5_1" arrivalPos="186.40" arrivalSpeed="13.00" duration="67.50" routeLength="379.42" waitingTime="26.00" waitingCount="2" stopTime="0.00" timeLoss="37.23" rerouteNo="0" devices="tripinfo_EN_21" vType="cars" speedFactor="1.00" vaporized=""/>
    <tripinfo id="WE_7" depart="125.00" departLane="2_1_2" departPos="5.10" departSpeed="0.00" departDelay="0.00" arrival="179.00" arrivalLane="1_4_2" arrivalPos="186.40" arrivalSpeed="11.85" duration="54.00" routeLength="395.15" waitingTime="11.50" waitingCount="1" stopTime="0.00" timeLoss="23.54" rerouteNo="0" devices="tripinfo_WE_7" vType="cars" speedFactor="1.02" vaporized=""/>
    <tripinfo id="EW_5" depart="126.00" departLane="4_1_2" departPos="5.10" departSpeed="0.00" departDelay="1.00" arrival="179.50" arrivalLane="1_2_1" arrivalPos="186.40" arrivalSpeed="12.98" duration="53.50" routeLength="395.15" waitingTime="13.00" waitingCount="1" stopTime="0.00" timeLoss="22.98" rerouteNo="0" devices="tripinfo_EW_5" vType="cars" speedFactor="1.09" vaporized=""/>
    <tripinfo id="EW_6" depart="137.00" departLane="4_1_2" departPos="5.10" departSpeed="0.00" departDelay="0.00" arrival="180.50" arrivalLane="1_2_2" arrivalPos="186.40" arrivalSpeed="13.00" duration="43.50" routeLength="395.15" waitingTime="0.00" waitingCount="0" stopTime="0.00" timeLoss="13.04" rerouteNo="0" devices="tripinfo_EW_6" vType="cars" speedFactor="1.08" vaporized=""/>
    <tripinfo id="WE_8" depart="134.00" departLane="2_1_2" departPos="5.10" departSpeed="0.00" departDelay="0.00" arrival="181.50" arrivalLane="1_4_2" arrivalPos="186.40" arrivalSpeed="11.55" duration="47.50" routeLength="395.15" waitingTime="2.00" waitingCount="1" stopTime="0.00" timeLoss="16.86" rerouteNo="0" devices="tripinfo_WE_8" vType="cars" speedFactor="1.01" vaporized=""/>
    <tripinfo id="EW_4" depart="123.00" departLane="4_1_2" departPos="5.10" departSpeed="0.00" departDelay="0.00" arrival="182.50" arrivalLane="1_2_1" arrivalPos="186.40" arrivalSpeed="12.70" duration="59.50" routeLength="395.15" waitingTime="13.00" waitingCount="1" stopTime="0.00" timeLoss="29.01" rerouteNo="0" devices="tripinfo_EW_4" vType="cars" speedFactor="1.11" vaporized=""/>
    <tripinfo id="WS_23" depart="125.00" departLane="2_1_1" departPos="5.10" departSpeed="0.00" departDelay="0.00" arrival="192.00" arrivalLane="1_3_1" arrivalPos="186.40" arrivalSpeed="11.96" duration="67.00" routeLength="379.43" waitingTime="21.00" waitingCount="3" stopTime="0.00" timeLoss="36.82" rerouteNo="0" devices="tripinfo_WS_23" vType="cars" speedFactor="1.02" vaporized=""/>
    <personinfo id="person_NS_w.1" depart="10.87" type="DEFAULT_PEDTYPE" speedFactor="1.12" duration="184.00" waitingTime="0.00" timeLoss="41.68" traveltime="184.00">
        <walk depart="11.00" departPos="100.00" arrival="195.00" arrivalPos="93.20" duration="184.00" routeLength="221.25" timeLoss="41.68" maxSpeed="1.55"/>
    </personinfo>
    <tripinfo id="EN_29" depart="137.00" departLane="4_1_1" departPos="5.10" departSpeed="0.00" departDelay="0.00" arrival="196.50" arrivalLane="1_5_1" arrivalPos="186.40" arrivalSpeed="13.00" duration="59.50" routeLength="379.42" waitingTime="12.50" waitingCount="1" stopTime="0.00" timeLoss="29.41" rerouteNo="0" devices="tripinfo_EN_29" vType="cars" speedFactor="1.15" vaporized=""/>
    <personinfo id="person_NE_diag.0" depart="4.87" type="DEFAULT_PEDTYPE" speedFactor="0.99" duration="196.50" waitingTime="0.00" timeLoss="31.27" traveltime="196.50">
        <walk depart="5.00" departPos="100.00" arrival="201.50" arrivalPos="93.20" duration="196.50" routeLength="226.53" timeLoss="31.27" maxSpeed="1.37"/>
    </personinfo>
    <personinfo id="person_NS_w.0" depart="3.48" type="DEFAULT_PEDTYPE" speedFactor="1.00" duration="202.50" waitingTime="0.00" timeLoss="42.72" traveltime="202.50">
        <walk depart="3.50" departPos="100.00" arrival="206.00" arrivalPos="93.20" duration="202.50" routeLength="221.25" timeLoss="42.72" maxSpeed="1.38"/>
    </personinfo>
    <tripinfo id="NS_31" depart="141.00" departLane="5_1_2" departPos="5.10" departSpeed="0.00" departDelay="2.00" arrival="206.00" arrivalLane="1_3_1" arrivalPos="186.40" arrivalSpeed="12.02" duration="65.00" routeLength="395.15" waitingTime="25.00" waitingCount="1" stopTime="0.00" timeLoss="34.58" rerouteNo="0" devices="tripinfo_NS_31" vType="cars" speedFactor="1.01" vaporized=""/>
    <personinfo id="person_NS_w.2" depart="10.90" type="DEFAULT_PEDTYPE" speedFactor="1.00" duration="195.50" waitingTime="0.00" timeLoss="35.87" traveltime="195.50">
        <walk depart="11.00" departPos="100.00" arrival="206.50" arrivalPos="93.20" duration="195.50" routeLength="221.25" timeLoss="35.87" maxSpeed="1.39"/>
    </personinfo>
    <tripinfo id="NS_30" depart="138.00" departLane="5_1_2" departPos="5.10" departSpeed="0.00" departDelay="0.00" arrival="207.50" arrivalLane="1_3_1" arrivalPos="186.40" arrivalSpeed="13.00" duration="69.50" routeLength="395.15" waitingTime="24.50" waitingCount="1" stopTime="0.00" timeLoss="39.05" rerouteNo="0" devices="tripinfo_NS_30" vType="cars" speedFactor="1.01" vaporized=""/>
    <personinfo id="person_NS_w.3" depart="12.93" type="DEFAULT_PEDTYPE" speedFactor="0.99" duration="195.00" waitingTime="0.00" timeLoss="33.61" traveltime="195.00">
        <walk depart="13.00" departPos="100.00" arrival="208.00" arrivalPos="93.20" duration="195.00" routeLength="221.25" timeLoss="33.61" maxSpeed="1.37"/>
    </personinfo>
    <tripinfo id="NS_32" depart="147.00" departLane="5_1_2" departPos="5.10" departSpeed="0.00" departDelay="0.00" arrival="208.50" arrivalLane="1_3_2" arrivalPos="186.40" arrivalSpeed="12.23" duration="61.50" routeLength="395.15" waitingTime="16.00" waitingCount="1" stopTime="0.00" timeLoss="30.83" rerouteNo="0" devices="tripinfo_NS_32" vType="cars" speedFactor="1.00" vaporized=""/>
    <personinfo id="person_SN_e.0" depart="16.32" type="DEFAULT_PEDTYPE" speedFactor="0.96" duration="193.00" waitingTime="0.00" timeLoss="27.33" traveltime="193.00">
        <walk depart="16.50" departPos="100.00" arrival="209.50" arrivalPos="93.20" duration="193.00" routeLength="221.24" timeLoss="27.33" maxSpeed="1.34"/>
    </personinfo>
    <tripinfo id="NS_34" depart="152.00" departLane="5_1_2" departPos="5.10" departSpeed="0.00" departDelay="0.00" arrival="210.00" arrivalLane="1_3_1" arrivalPos="186.40" arrivalSpeed="12.36" duration="58.00" routeLength="395.15" waitingTime="12.00" waitingCount="1" stopTime="0.00" timeLoss="27.39" rerouteNo="0" devices="tripinfo_NS_34" vType="cars" speedFactor="0.85" vaporized=""/>
    <personinfo id="person_NS_w.4" depart="22.10" type="DEFAULT_PEDTYPE" speedFactor="0.96" duration="188.50" waitingTime="0.00" timeLoss="22.51" traveltime="188.50">
        <walk depart="22.50" departPos="100.00" arrival="211.00" arrivalPos="93.20" duration="188.50" routeLength="221.25" timeLoss="22.51" maxSpeed="1.33"/>
    </personinfo>
    <tripinfo id="NS_38" depart="163.00" departLane="5_1_2" departPos="5.10" departSpeed="0.00" departDelay="0.00" arrival="213.00" arrivalLane="1_3_2" arrivalPos="186.40" arrivalSpeed="12.56" duration="50.00" routeLength="395.15" waitingTime="1.50" waitingCount="1" stopTime="0.00" timeLoss="19.17" rerouteNo="0" devices="tripinfo_NS_38" vType="cars" speedFactor="0.93" vaporized=""/>
    <tripinfo id="NE_39" depart="177.00" departLane="5_1_3" departPos="5.10" departSpeed="0.00" departDelay="0.00" arrival="215.00" arrivalLane="1_4_2" arrivalPos="186.40" arrivalSpeed="12.28" duration="38.00" routeLength="392.22" waitingTime="0.00" waitingCount="0" stopTime="0.00" timeLoss="6.86" rerouteNo="0" devices="tripinfo_NE_39" vType="cars" speedFactor="0.99" vaporized=""/>
    <personinfo id="person_NS_w.7" depart="50.97" type="DEFAULT_PEDTYPE" speedFactor="1.02" duration="166.00" waitingTime="0.00" timeLoss="10.15" traveltime="166.00">
        <walk depart="51.00" departPos="100.00" arrival="217.00" arrivalPos="93.20" duration="166.00" routeLength="221.25" timeLoss="10.15" maxSpeed="1.42"/>
    </personinfo>
    <personinfo id="person_NS_w.5" depart="28.81" type="DEFAULT_PEDTYPE" speedFactor="0.91" duration="188.50" waitingTime="0.00" timeLoss="12.83" traveltime="188.50">
        <walk depart="29.00" departPos="100.00" arrival="217.50" arrivalPos="93.20" duration="188.50" routeLength="221.25" timeLoss="12.83" maxSpeed="1.26"/>
    </personinfo>
    <personinfo id="person_SW_diag.0" depart="12.21" type="DEFAULT_PEDTYPE" speedFactor="0.87" duration="206.50" waitingTime="0.00" timeLoss="21.87" traveltime="206.50">
        <walk depart="12.50" departPos="100.00" arrival="219.00" arrivalPos="93.20" duration="206.50" routeLength="223.30" timeLoss="21.87" maxSpeed="1.21"/>
    </personinfo>
    <tripinfo id="NW_33" depart="147.00" departLane="5_1_1" departPos="5.10" departSpeed="0.00" departDelay="0.00" arrival="220.00" arrivalLane="1_2_1" arrivalPos="186.40" arrivalSpeed="13.00" duration="73.00" routeLength="379.43" waitingTime="25.00" waitingCount="2" stopTime="0.00" timeLoss="42.21" rerouteNo="0" devices="tripinfo_NW_33" vType="cars" speedFactor="0.83" vaporized=""/>
    <personinfo id="person_NS_w.6" depart="35.57" type="DEFAULT_PEDTYPE" speedFactor="0.95" duration="185.50" waitingTime="0.00" timeLoss="17.43" traveltime="185.50">
        <walk depart="36.00" departPos="100.00" arrival="221.50" arrivalPos="93.20" duration="185.50" routeLength="221.25" timeLoss="17.43" maxSpeed="1.32"/>
    </personinfo>
    <tripinfo id="NS_40" depart="188.00" departLane="5_1_2" departPos="5.10" departSpeed="0.00" departDelay="0.00" arrival="224.00" arrivalLane="1_3_1" arrivalPos="186.40" arrivalSpeed="12.16" duration="36.00" routeLength="395.15" waitingTime="0.00" waitingCount="0" stopTime="0.00" timeLoss="5.26" rerouteNo="0" devices="tripinfo_NS_40" vType="cars" speedFactor="1.05" vaporized=""/>
    <personinfo id="person_SN_e.3" depart="86.45" type="DEFAULT_PEDTYPE" speedFactor="1.23" duration="138.00" waitingTime="0.00" timeLoss="8.07" traveltime="138.00">
        <walk depart="86.50" departPos="100.00" arrival="224.50" arrivalPos="93.20" duration="138.00" routeLength="221.24" timeLoss="8.07" maxSpeed="1.70"/>
    </personinfo>
    <personinfo id="person_SN_e.1" depart="49.21" type="DEFAULT_PEDTYPE" speedFactor="0.96" duration="175.50" waitingTime="0.00" timeLoss="9.52" traveltime="175.50">
        <walk depart="49.50" departPos="100.00" arrival="225.00" arrivalPos="93.20" duration="175.50" routeLength="221.24" timeLoss="9.52" maxSpeed="1.33"/>
    </personinfo>
    <tripinfo id="NE_41" depart="192.00" departLane="5_1_3" departPos="5.10" departSpeed="0.00" departDelay="0.00" arrival="230.00" arrivalLane="1_4_2" arrivalPos="186.40" arrivalSpeed="12.92" duration="38.00" routeLength="392.22" waitingTime="0.00" waitingCount="0" stopTime="0.00" timeLoss="7.14" rerouteNo="0" devices="tripinfo_NE_41" vType="cars" speedFactor="1.04" vaporized=""/>
    <personinfo id="person_NS_w.10" depart="78.08" type="DEFAULT_PEDTYPE" speedFactor="1.12" duration="152.00" waitingTime="0.00" timeLoss="9.48" traveltime="152.00">
        <walk depart="78.50" departPos="100.00" arrival="230.50" arrivalPos="93.20" duration="152.00" routeLength="221.25" timeLoss="9.48" maxSpeed="1.55"/>
    </personinfo>
    <tripinfo id="NS_43" depart="197.00" departLane="5_1_2" departPos="5.10" departSpeed="0.00" departDelay="0.00" arrival="234.00" arrivalLane="1_3_1" arrivalPos="186.40" arrivalSpeed="12.69" duration="37.00" routeLength="395.15" waitingTime="0.00" waitingCount="0" stopTime="0.00" timeLoss="6.38" rerouteNo="0" devices="tripinfo_NS_43" vType="cars" speedFactor="0.98" vaporized=""/>
    <personinfo id="person_NS_w.9" depart="66.54" type="DEFAULT_PEDTYPE" speedFactor="1.06" duration="169.00" waitingTime="0.00" timeLoss="18.11" traveltime="169.00">
        <walk depart="67.00" departPos="100.00" arrival="236.00" arrivalPos="93.20" duration="169.00" routeLength="221.25" timeLoss="18.11" maxSpeed="1.47"/>
    </personinfo>
    <personinfo id="person_ES_diag.0" depart="51.35" type="DEFAULT_PEDTYPE" speedFactor="1.15" duration="185.00" waitingTime="0.00" timeLoss="45.61" traveltime="185.00">
        <walk depart="51.50" departPos="100.00" arrival="236.50" arrivalPos="93.20" duration="185.00" routeLength="223.30" timeLoss="45.61" maxSpeed="1.60"/>
    </personinfo>
    <personinfo id="person_NS_w.8" depart="52.94" type="DEFAULT_PEDTYPE" speedFactor="0.93" duration="184.50" waitingTime="0.00" timeLoss="12.83" traveltime="184.50">
        <walk depart="53.00" departPos="100.00" arrival="237.50" arrivalPos="93.20" duration="184.50" routeLength="221.25" timeLoss="12.83" maxSpeed="1.29"/>
    </personinfo>
    <personinfo id="person_WE_s.2" depart="64.24" type="DEFAULT_PEDTYPE" speedFactor="1.20" duration="173.00" waitingTime="0.00" timeLoss="40.35" traveltime="173.00">
        <walk depart="64.50" departPos="100.00" arrival="237.50" arrivalPos="93.20" duration="173.00" routeLength="221.17" timeLoss="40.35" maxSpeed="1.67"/>
    </personinfo>
    <personinfo id="person_ES_diag.1" depart="59.42" type="DEFAULT_PEDTYPE" speedFactor="1.13" duration="178.50" waitingTime="0.00" timeLoss="36.07" traveltime="178.50">
        <walk depart="59.50" departPos="100.00" arrival="238.00" arrivalPos="93.20" duration="178.50" routeLength="223.30" timeLoss="36.07" maxSpeed="1.57"/>
    </personinfo>
    <personinfo id="person_SW_diag.1" depart="60.77" type="DEFAULT_PEDTYPE" speedFactor="1.10" duration="182.00" waitingTime="0.00" timeLoss="29.79" traveltime="182.00">
        <walk depart="61.00" departPos="100.00" arrival="243.00" arrivalPos="93.20" duration="182.00" routeLength="233.56" timeLoss="29.79" maxSpeed="1.53"/>
    </personinfo>
    <personinfo id="person_WN_diag.3" depart="74.86" type="DEFAULT_PEDTYPE" speedFactor="1.13" duration="168.00" waitingTime="0.00" timeLoss="25.33" traveltime="168.00">
        <walk depart="75.00" departPos="100.00" arrival="243.00" arrivalPos="93.20" duration="168.00" routeLength="223.30" timeLoss="25.33" maxSpeed="1.57"/>
    </personinfo>
    <tripinfo id="SN_35" depart="156.00" departLane="3_1_2" departPos="5.10" departSpeed="0.00" departDelay="0.00" arrival="243.00" arrivalLane="1_5_1" arrivalPos="186.40" arrivalSpeed="12.86" duration="87.00" routeLength="395.15" waitingTime="45.00" waitingCount="1" stopTime="0.00" timeLoss="56.59" rerouteNo="0" devices="tripinfo_SN_35" vType="cars" speedFactor="1.06" vaporized=""/>
    <tripinfo id="SW_8" depart="40.00" departLane="3_1_3" departPos="5.10" departSpeed="0.00" departDelay="0.00" arrival="244.50" arrivalLane="1_2_2" arrivalPos="186.40" arrivalSpeed="12.54" duration="204.50" routeLength="392.22" waitingTime="161.50" waitingCount="1" stopTime="0.00" timeLoss="173.16" rerouteNo="0" devices="tripinfo_SW_8" vType="cars" speedFactor="0.85" vaporized=""/>