<?xml version="1.0" encoding="UTF-8"?>

<!-- generated on 2025-06-25 16:06:17 by Eclipse SUMO GUI Version 1.22.0
<sumoConfiguration xmlns:xsi="http://www.w3.org/2001/XMLSchema-instance" xsi:noNamespaceSchemaLocation="http://sumo.dlr.de/xsd/sumoConfiguration.xsd">

    <input>
        <net-file value="/home/naderian/Desktop/Shakiba/MMSVCC/environment/network_model/single_intersection_Concurrent_(LPI).net.xml"/>
        <route-files value="/home/naderian/Desktop/Shakiba/MMSVCC/environment/network_model/single_intersection.rou.xml"/>
        <additional-files value="/home/naderian/Desktop/Shakiba/MMSVCC/environment/network_model/single_intersection_Concurrent_(LPI).add.xml"/>
    </input>

    <output>
        <queue-output value="/home/naderian/Desktop/Shakiba/MMSVCC/environment/simulation_data/single_intersection/queues_multi_scale_symmetric_pene_100.xml"/>
        <tripinfo-output value="/home/naderian/Desktop/Shakiba/MMSVCC/environment/simulation_data/single_intersection/tripinfo_multi_scale_symmetric_pene_100.xml"/>
    </output>

    <time>
        <begin value="0"/>
        <step-length value="0.5"/>
    </time>

    <processing>
        <waiting-time-memory value="1000"/>
    </processing>

    <report>
        <verbose value="true"/>
        <no-step-log value="true"/>
    </report>

    <ssm_device>
        <device.ssm.file value="/home/naderian/Desktop/Shakiba/MMSVCC/environment/simulation_data/single_intersection/SSMinfo_multi_scale_pene_100.xml"/>
    </ssm_device>

    <traci_server>
        <remote-port value="50135"/>
    </traci_server>

    <gui_only>
        <start value="true"/>
    </gui_only>

</sumoConfiguration>
-->

<tripinfos xmlns:xsi="http://www.w3.org/2001/XMLSchema-instance" xsi:noNamespaceSchemaLocation="http://sumo.dlr.de/xsd/tripinfo_file.xsd">
    <tripinfo id="SN_0" depart="0.00" departLane="3_1_2" departPos="5.10" departSpeed="0.00" departDelay="0.00" arrival="35.00" arrivalLane="1_5_1" arrivalPos="186.40" arrivalSpeed="13.00" duration="35.00" routeLength="395.15" waitingTime="0.00" waitingCount="0" stopTime="0.00" timeLoss="4.21" rerouteNo="0" devices="tripinfo_SN_0 ssm_SN_0" vType="cars" speedFactor="1.02" vaporized=""/>
    <tripinfo id="NS_1" depart="1.00" departLane="5_1_2" departPos="5.10" departSpeed="0.00" departDelay="0.00" arrival="38.00" arrivalLane="1_3_1" arrivalPos="186.40" arrivalSpeed="13.00" duration="37.00" routeLength="395.15" waitingTime="0.00" waitingCount="0" stopTime="0.00" timeLoss="6.29" rerouteNo="0" devices="tripinfo_NS_1 ssm_NS_1" vType="cars" speedFactor="1.01" vaporized=""/>
    <tripinfo id="SN_2" depart="5.00" departLane="3_1_2" departPos="5.10" departSpeed="0.00" departDelay="0.00" arrival="40.00" arrivalLane="1_5_1" arrivalPos="186.40" arrivalSpeed="13.00" duration="35.00" routeLength="395.15" waitingTime="0.00" waitingCount="0" stopTime="0.00" timeLoss="4.54" rerouteNo="0" devices="tripinfo_SN_2 ssm_SN_2" vType="cars" speedFactor="1.05" vaporized=""/>
    <tripinfo id="SE_4" depart="9.00" departLane="3_1_1" departPos="5.10" departSpeed="0.00" departDelay="0.00" arrival="45.50" arrivalLane="1_4_1" arrivalPos="186.40" arrivalSpeed="13.00" duration="36.50" routeLength="379.42" waitingTime="0.00" waitingCount="0" stopTime="0.00" timeLoss="6.24" rerouteNo="0" devices="tripinfo_SE_4 ssm_SE_4" vType="cars" speedFactor="0.94" vaporized=""/>
    <tripinfo id="NS_5" depart="11.00" departLane="5_1_2" departPos="5.10" departSpeed="0.00" departDelay="0.00" arrival="46.50" arrivalLane="1_3_1" arrivalPos="186.40" arrivalSpeed="13.00" duration="35.50" routeLength="395.15" waitingTime="0.00" waitingCount="0" stopTime="0.00" timeLoss="4.90" rerouteNo="0" devices="tripinfo_NS_5 ssm_NS_5" vType="cars" speedFactor="0.91" vaporized=""/>
    <tripinfo id="EN_10" depart="20.00" departLane="4_1_1" departPos="5.10" departSpeed="0.00" departDelay="0.00" arrival="63.50" arrivalLane="1_5_1" arrivalPos="186.40" arrivalSpeed="13.00" duration="43.50" routeLength="379.42" waitingTime="4.00" waitingCount="1" stopTime="0.00" timeLoss="13.27" rerouteNo="0" devices="tripinfo_EN_10 ssm_EN_10" vType="cars" speedFactor="0.96" vaporized=""/>
    <tripinfo id="WE_0" depart="1.00" departLane="2_1_2" departPos="5.10" departSpeed="0.00" departDelay="0.00" arrival="64.00" arrivalLane="1_4_1" arrivalPos="186.40" arrivalSpeed="13.00" duration="63.00" routeLength="395.15" waitingTime="20.50" waitingCount="1" stopTime="0.00" timeLoss="32.55" rerouteNo="0" devices="tripinfo_WE_0 ssm_WE_0" vType="cars" speedFactor="1.12" vaporized=""/>
    <tripinfo id="WE_1" depart="12.00" departLane="2_1_2" departPos="5.10" departSpeed="0.00" departDelay="0.00" arrival="64.00" arrivalLane="1_4_2" arrivalPos="186.40" arrivalSpeed="13.00" duration="52.00" routeLength="395.15" waitingTime="11.00" waitingCount="1" stopTime="0.00" timeLoss="21.55" rerouteNo="0" devices="tripinfo_WE_1 ssm_WE_1" vType="cars" speedFactor="1.30" vaporized=""/>
    <tripinfo id="EW_0" depart="22.00" departLane="4_1_2" departPos="5.10" departSpeed="0.00" departDelay="0.00" arrival="64.00" arrivalLane="1_2_2" arrivalPos="186.40" arrivalSpeed="13.00" duration="42.00" routeLength="395.15" waitingTime="3.00" waitingCount="1" stopTime="0.00" timeLoss="11.55" rerouteNo="0" devices="tripinfo_EW_0 ssm_EW_0" vType="cars" speedFactor="1.01" vaporized=""/>
    <tripinfo id="WS_3" depart="7.00" departLane="2_1_1" departPos="5.10" departSpeed="0.00" departDelay="0.00" arrival="65.00" arrivalLane="1_3_1" arrivalPos="186.40" arrivalSpeed="13.00" duration="58.00" routeLength="379.43" waitingTime="13.00" waitingCount="3" stopTime="0.00" timeLoss="27.85" rerouteNo="0" devices="tripinfo_WS_3 ssm_WS_3" vType="cars" speedFactor="1.01" vaporized=""/>
    <tripinfo id="WE_2" depart="22.00" departLane="2_1_2" departPos="5.10" departSpeed="0.00" departDelay="0.00" arrival="65.50" arrivalLane="1_4_2" arrivalPos="186.40" arrivalSpeed="13.00" duration="43.50" routeLength="395.15" waitingTime="0.00" waitingCount="0" stopTime="0.00" timeLoss="13.09" rerouteNo="0" devices="tripinfo_WE_2 ssm_WE_2" vType="cars" speedFactor="0.89" vaporized=""/>
    <tripinfo id="WE_3" depart="27.00" departLane="2_1_2" departPos="5.10" departSpeed="0.00" departDelay="0.00" arrival="70.50" arrivalLane="1_4_1" arrivalPos="186.40" arrivalSpeed="10.73" duration="43.50" routeLength="395.15" waitingTime="0.00" waitingCount="0" stopTime="0.00" timeLoss="12.85" rerouteNo="0" devices="tripinfo_WE_3 ssm_WE_3" vType="cars" speedFactor="1.06" vaporized=""/>
    <tripinfo id="WS_6" depart="14.00" departLane="2_1_1" departPos="5.10" departSpeed="0.00" departDelay="0.00" arrival="73.50" arrivalLane="1_3_1" arrivalPos="186.40" arrivalSpeed="8.94" duration="59.50" routeLength="379.43" waitingTime="6.50" waitingCount="5" stopTime="0.00" timeLoss="29.19" rerouteNo="0" devices="tripinfo_WS_6 ssm_WS_6" vType="cars" speedFactor="0.89" vaporized=""/>
    <tripinfo id="NS_8" depart="17.00" departLane="5_1_2" departPos="5.10" departSpeed="0.00" departDelay="0.00" arrival="82.00" arrivalLane="1_3_1" arrivalPos="186.40" arrivalSpeed="13.00" duration="65.00" routeLength="395.15" waitingTime="24.50" waitingCount="1" stopTime="0.00" timeLoss="34.55" rerouteNo="0" devices="tripinfo_NS_8 ssm_NS_8" vType="cars" speedFactor="0.95" vaporized=""/>
    <tripinfo id="SN_9" depart="18.00" departLane="3_1_2" departPos="5.10" departSpeed="0.00" departDelay="0.00" arrival="82.00" arrivalLane="1_5_1" arrivalPos="186.40" arrivalSpeed="13.00" duration="64.00" routeLength="395.15" waitingTime="19.50" waitingCount="3" stopTime="0.00" timeLoss="33.55" rerouteNo="0" devices="tripinfo_SN_9 ssm_SN_9" vType="cars" speedFactor="0.76" vaporized=""/>
    <tripinfo id="NS_11" depart="20.00" departLane="5_1_2" departPos="5.10" departSpeed="0.00" departDelay="0.00" arrival="82.00" arrivalLane="1_3_2" arrivalPos="186.40" arrivalSpeed="13.00" duration="62.00" routeLength="395.15" waitingTime="15.00" waitingCount="2" stopTime="0.00" timeLoss="31.55" rerouteNo="0" devices="tripinfo_NS_11 ssm_NS_11" vType="cars" speedFactor="1.01" vaporized=""/>
    <tripinfo id="SN_15" depart="29.00" departLane="3_1_2" departPos="5.10" departSpeed="0.00" departDelay="0.00" arrival="82.00" arrivalLane="1_5_2" arrivalPos="186.40" arrivalSpeed="13.00" duration="53.00" routeLength="395.15" waitingTime="12.00" waitingCount="1" stopTime="0.00" timeLoss="22.55" rerouteNo="0" devices="tripinfo_SN_15 ssm_SN_15" vType="cars" speedFactor="0.85" vaporized=""/>
    <tripinfo id="SN_12" depart="25.00" departLane="3_1_2" departPos="5.10" departSpeed="0.00" departDelay="0.00" arrival="83.50" arrivalLane="1_5_1" arrivalPos="186.40" arrivalSpeed="13.00" duration="58.50" routeLength="395.15" waitingTime="13.50" waitingCount="5" stopTime="0.00" timeLoss="28.09" rerouteNo="0" devices="tripinfo_SN_12 ssm_SN_12" vType="cars" speedFactor="0.83" vaporized=""/>
    <tripinfo id="NS_13" depart="26.00" departLane="5_1_2" departPos="5.10" departSpeed="0.00" departDelay="0.00" arrival="83.50" arrivalLane="1_3_1" arrivalPos="186.40" arrivalSpeed="13.00" duration="57.50" routeLength="395.15" waitingTime="11.00" waitingCount="3" stopTime="0.00" timeLoss="27.09" rerouteNo="0" devices="tripinfo_NS_13 ssm_NS_13" vType="cars" speedFactor="0.95" vaporized=""/>
    <tripinfo id="NS_16" depart="31.50" departLane="5_1_2" departPos="5.10" departSpeed="0.00" departDelay="1.50" arrival="83.50" arrivalLane="1_3_2" arrivalPos="186.40" arrivalSpeed="13.00" duration="52.00" routeLength="395.15" waitingTime="5.00" waitingCount="3" stopTime="0.00" timeLoss="21.59" rerouteNo="0" devices="tripinfo_NS_16 ssm_NS_16" vType="cars" speedFactor="1.12" vaporized=""/>
    <tripinfo id="SN_18" depart="36.00" departLane="3_1_2" departPos="5.10" departSpeed="0.00" departDelay="0.00" arrival="83.50" arrivalLane="1_5_2" arrivalPos="186.40" arrivalSpeed="13.00" duration="47.50" routeLength="395.15" waitingTime="1.50" waitingCount="1" stopTime="0.00" timeLoss="17.09" rerouteNo="0" devices="tripinfo_SN_18 ssm_SN_18" vType="cars" speedFactor="0.96" vaporized=""/>
    <tripinfo id="SE_19" depart="39.00" departLane="3_1_1" departPos="5.10" departSpeed="0.00" departDelay="0.00" arrival="87.00" arrivalLane="1_4_1" arrivalPos="186.40" arrivalSpeed="13.00" duration="48.00" routeLength="379.42" waitingTime="2.00" waitingCount="4" stopTime="0.00" timeLoss="17.87" rerouteNo="0" devices="tripinfo_SE_19 ssm_SE_19" vType="cars" speedFactor="0.92" vaporized=""/>
    <tripinfo id="NW_21" depart="53.00" departLane="5_1_1" departPos="5.10" departSpeed="0.00" departDelay="0.00" arrival="91.00" arrivalLane="1_2_1" arrivalPos="186.40" arrivalSpeed="13.00" duration="38.00" routeLength="379.43" waitingTime="0.50" waitingCount="1" stopTime="0.00" timeLoss="7.45" rerouteNo="0" devices="tripinfo_NW_21 ssm_NW_21" vType="cars" speedFactor="0.79" vaporized=""/>
    <tripinfo id="SN_20" depart="40.00" departLane="3_1_2" departPos="5.10" departSpeed="0.00" departDelay="0.00" arrival="91.50" arrivalLane="1_5_2" arrivalPos="186.40" arrivalSpeed="9.26" duration="51.50" routeLength="395.15" waitingTime="0.00" waitingCount="0" stopTime="0.00" timeLoss="21.02" rerouteNo="0" devices="tripinfo_SN_20 ssm_SN_20" vType="cars" speedFactor="0.84" vaporized=""/>
    <tripinfo id="NS_14" depart="29.00" departLane="5_1_2" departPos="5.10" departSpeed="0.00" departDelay="2.00" arrival="92.00" arrivalLane="1_3_1" arrivalPos="186.40" arrivalSpeed="9.11" duration="63.00" routeLength="395.15" waitingTime="7.00" waitingCount="5" stopTime="0.00" timeLoss="32.43" rerouteNo="0" devices="tripinfo_NS_14 ssm_NS_14" vType="cars" speedFactor="0.93" vaporized=""/>
    <tripinfo id="SN_17" depart="33.00" departLane="3_1_2" departPos="5.10" departSpeed="0.00" departDelay="0.00" arrival="92.00" arrivalLane="1_5_1" arrivalPos="186.40" arrivalSpeed="9.12" duration="59.00" routeLength="395.15" waitingTime="5.00" waitingCount="4" stopTime="0.00" timeLoss="28.43" rerouteNo="0" devices="tripinfo_SN_17 ssm_SN_17" vType="cars" speedFactor="1.10" vaporized=""/>
    <tripinfo id="EW_1" depart="42.00" departLane="4_1_2" departPos="5.10" departSpeed="0.00" departDelay="0.00" arrival="105.00" arrivalLane="1_2_1" arrivalPos="186.40" arrivalSpeed="13.00" duration="63.00" routeLength="395.15" waitingTime="20.50" waitingCount="1" stopTime="0.00" timeLoss="32.55" rerouteNo="0" devices="tripinfo_EW_1 ssm_EW_1" vType="cars" speedFactor="1.02" vaporized=""/>
    <tripinfo id="EW_2" depart="46.00" departLane="4_1_2" departPos="5.10" departSpeed="0.00" departDelay="0.00" arrival="105.00" arrivalLane="1_2_2" arrivalPos="186.40" arrivalSpeed="13.00" duration="59.00" routeLength="395.15" waitingTime="11.50" waitingCount="2" stopTime="0.00" timeLoss="28.55" rerouteNo="0" devices="tripinfo_EW_2 ssm_EW_2" vType="cars" speedFactor="1.18" vaporized=""/>
    <tripinfo id="WE_4" depart="50.00" departLane="2_1_2" departPos="5.10" departSpeed="0.00" departDelay="0.00" arrival="105.00" arrivalLane="1_4_1" arrivalPos="186.40" arrivalSpeed="13.00" duration="55.00" routeLength="395.15" waitingTime="13.50" waitingCount="2" stopTime="0.00" timeLoss="24.55" rerouteNo="0" devices="tripinfo_WE_4 ssm_WE_4" vType="cars" speedFactor="1.01" vaporized=""/>
    <tripinfo id="EW_3" depart="59.00" departLane="4_1_2" departPos="5.10" departSpeed="0.00" departDelay="0.00" arrival="106.50" arrivalLane="1_2_1" arrivalPos="186.40" arrivalSpeed="13.00" duration="47.50" routeLength="395.15" waitingTime="2.50" waitingCount="1" stopTime="0.00" timeLoss="17.09" rerouteNo="0" devices="tripinfo_EW_3 ssm_EW_3" vType="cars" speedFactor="0.98" vaporized=""/>
    <tripinfo id="WE_5" depart="75.00" departLane="2_1_2" departPos="5.10" departSpeed="0.00" departDelay="0.00" arrival="112.00" arrivalLane="1_4_1" arrivalPos="186.40" arrivalSpeed="13.00" duration="37.00" routeLength="395.15" waitingTime="0.00" waitingCount="0" stopTime="0.00" timeLoss="6.57" rerouteNo="0" devices="tripinfo_WE_5 ssm_WE_5" vType="cars" speedFactor="1.02" vaporized=""/>
    <tripinfo id="EW_4" depart="62.00" departLane="4_1_2" departPos="5.10" departSpeed="0.00" departDelay="0.00" arrival="114.50" arrivalLane="1_2_1" arrivalPos="186.40" arrivalSpeed="9.21" duration="52.50" routeLength="395.15" waitingTime="0.00" waitingCount="0" stopTime="0.00" timeLoss="22.10" rerouteNo="0" devices="tripinfo_EW_4 ssm_EW_4" vType="cars" speedFactor="0.95" vaporized=""/>
    <tripinfo id="EW_5" depart="76.00" departLane="4_1_2" departPos="5.10" departSpeed="0.00" departDelay="0.00" arrival="114.50" arrivalLane="1_2_2" arrivalPos="186.40" arrivalSpeed="13.00" duration="38.50" routeLength="395.15" waitingTime="0.00" waitingCount="0" stopTime="0.00" timeLoss="7.73" rerouteNo="0" devices="tripinfo_EW_5 ssm_EW_5" vType="cars" speedFactor="1.08" vaporized=""/>
    <tripinfo id="NS_22" depart="66.00" departLane="5_1_2" departPos="5.10" departSpeed="0.00" departDelay="0.00" arrival="128.00" arrivalLane="1_3_1" arrivalPos="186.40" arrivalSpeed="13.00" duration="62.00" routeLength="395.15" waitingTime="19.00" waitingCount="1" stopTime="0.00" timeLoss="31.55" rerouteNo="0" devices="tripinfo_NS_22 ssm_NS_22" vType="cars" speedFactor="0.93" vaporized=""/>
    <tripinfo id="NS_26" depart="75.00" departLane="5_1_2" departPos="5.10" departSpeed="0.00" departDelay="0.00" arrival="128.00" arrivalLane="1_3_2" arrivalPos="186.40" arrivalSpeed="13.00" duration="53.00" routeLength="395.15" waitingTime="12.00" waitingCount="2" stopTime="0.00" timeLoss="22.55" rerouteNo="0" devices="tripinfo_NS_26 ssm_NS_26" vType="cars" speedFactor="1.04" vaporized=""/>
    <tripinfo id="SN_28" depart="81.00" departLane="3_1_2" departPos="5.10" departSpeed="0.00" departDelay="0.00" arrival="128.00" arrivalLane="1_5_1" arrivalPos="186.40" arrivalSpeed="13.00" duration="47.00" routeLength="395.15" waitingTime="8.00" waitingCount="1" stopTime="0.00" timeLoss="16.55" rerouteNo="0" devices="tripinfo_SN_28 ssm_SN_28" vType="cars" speedFactor="1.09" vaporized=""/>
    <tripinfo id="SN_25" depart="74.00" departLane="3_1_2" departPos="5.10" departSpeed="0.00" departDelay="0.00" arrival="129.50" arrivalLane="1_5_1" arrivalPos="186.40" arrivalSpeed="13.00" duration="55.50" routeLength="395.15" waitingTime="13.50" waitingCount="1" stopTime="0.00" timeLoss="25.09" rerouteNo="0" devices="tripinfo_SN_25 ssm_SN_25" vType="cars" speedFactor="1.01" vaporized=""/>
    <tripinfo id="NS_29" depart="83.00" departLane="5_1_2" departPos="5.10" departSpeed="0.00" departDelay="0.00" arrival="129.50" arrivalLane="1_3_1" arrivalPos="186.40" arrivalSpeed="13.00" duration="46.50" routeLength="395.15" waitingTime="2.00" waitingCount="1" stopTime="0.00" timeLoss="16.09" rerouteNo="0" devices="tripinfo_NS_29 ssm_NS_29" vType="cars" speedFactor="1.05" vaporized=""/>
    <tripinfo id="SN_30" depart="84.00" departLane="3_1_2" departPos="5.10" departSpeed="0.00" departDelay="1.00" arrival="129.50" arrivalLane="1_5_2" arrivalPos="186.40" arrivalSpeed="13.00" duration="45.50" routeLength="395.15" waitingTime="0.00" waitingCount="0" stopTime="0.00" timeLoss="14.89" rerouteNo="0" devices="tripinfo_SN_30 ssm_SN_30" vType="cars" speedFactor="1.00" vaporized=""/>
    <tripinfo id="SN_31" depart="87.00" departLane="3_1_2" departPos="5.10" departSpeed="0.00" departDelay="3.00" arrival="135.50" arrivalLane="1_5_2" arrivalPos="186.40" arrivalSpeed="13.00" duration="48.50" routeLength="395.15" waitingTime="0.50" waitingCount="1" stopTime="0.00" timeLoss="17.71" rerouteNo="0" devices="tripinfo_SN_31 ssm_SN_31" vType="cars" speedFactor="0.88" vaporized=""/>
    <tripinfo id="SN_33" depart="90.00" departLane="3_1_2" departPos="5.10" departSpeed="0.00" departDelay="0.00" arrival="136.50" arrivalLane="1_5_1" arrivalPos="186.40" arrivalSpeed="9.77" duration="46.50" routeLength="395.15" waitingTime="0.00" waitingCount="0" stopTime="0.00" timeLoss="15.82" rerouteNo="0" devices="tripinfo_SN_33 ssm_SN_33" vType="cars" speedFactor="0.96" vaporized=""/>
    <tripinfo id="SN_34" depart="97.00" departLane="3_1_2" departPos="5.10" departSpeed="0.00" departDelay="0.00" arrival="137.00" arrivalLane="1_5_2" arrivalPos="186.40" arrivalSpeed="13.00" duration="40.00" routeLength="395.15" waitingTime="0.00" waitingCount="0" stopTime="0.00" timeLoss="9.24" rerouteNo="0" devices="tripinfo_SN_34 ssm_SN_34" vType="cars" speedFactor="1.25" vaporized=""/>
    <tripinfo id="NS_32" depart="87.00" departLane="5_1_2" departPos="5.10" departSpeed="0.00" departDelay="0.00" arrival="137.50" arrivalLane="1_3_1" arrivalPos="186.40" arrivalSpeed="9.23" duration="50.50" routeLength="395.15" waitingTime="0.00" waitingCount="0" stopTime="0.00" timeLoss="20.07" rerouteNo="0" devices="tripinfo_NS_32 ssm_NS_32" vType="cars" speedFactor="0.98" vaporized=""/>
    <tripinfo id="NS_37" depart="105.00" departLane="5_1_2" departPos="5.10" departSpeed="0.00" departDelay="0.00" arrival="140.00" arrivalLane="1_3_2" arrivalPos="186.40" arrivalSpeed="13.00" duration="35.00" routeLength="395.15" waitingTime="0.00" waitingCount="0" stopTime="0.00" timeLoss="4.50" rerouteNo="0" devices="tripinfo_NS_37 ssm_NS_37" vType="cars" speedFactor="0.95" vaporized=""/>
    <tripinfo id="SE_27" depart="78.00" departLane="3_1_1" departPos="5.10" departSpeed="0.00" departDelay="0.00" arrival="141.00" arrivalLane="1_4_1" arrivalPos="186.40" arrivalSpeed="13.00" duration="63.00" routeLength="379.42" waitingTime="14.50" waitingCount="2" stopTime="0.00" timeLoss="32.83" rerouteNo="0" devices="tripinfo_SE_27 ssm_SE_27" vType="cars" speedFactor="1.13" vaporized=""/>
    <tripinfo id="SN_38" depart="107.00" departLane="3_1_2" departPos="5.10" departSpeed="0.00" departDelay="0.00" arrival="143.00" arrivalLane="1_5_2" arrivalPos="186.40" arrivalSpeed="13.00" duration="36.00" routeLength="395.15" waitingTime="0.00" waitingCount="0" stopTime="0.00" timeLoss="5.18" rerouteNo="0" devices="tripinfo_SN_38 ssm_SN_38" vType="cars" speedFactor="0.98" vaporized=""/>
    <tripinfo id="SN_40" depart="110.00" departLane="3_1_2" departPos="5.10" departSpeed="0.00" departDelay="0.00" arrival="147.00" arrivalLane="1_5_1" arrivalPos="186.40" arrivalSpeed="13.00" duration="37.00" routeLength="395.15" waitingTime="0.00" waitingCount="0" stopTime="0.00" timeLoss="6.16" rerouteNo="0" devices="tripinfo_SN_40 ssm_SN_40" vType="cars" speedFactor="1.12" vaporized=""/>
    <tripinfo id="NS_41" depart="111.00" departLane="5_1_2" departPos="5.10" departSpeed="0.00" departDelay="0.00" arrival="148.50" arrivalLane="1_3_2" arrivalPos="186.40" arrivalSpeed="13.00" duration="37.50" routeLength="395.15" waitingTime="0.00" waitingCount="0" stopTime="0.00" timeLoss="6.94" rerouteNo="0" devices="tripinfo_NS_41 ssm_NS_41" vType="cars" speedFactor="1.05" vaporized=""/>
    <personinfo id="person_SN_e.0" depart="5.50" type="DEFAULT_PEDTYPE" speedFactor="1.11" duration="152.00" waitingTime="0.00" timeLoss="7.99" traveltime="152.00">
        <walk depart="5.50" departPos="100.00" arrival="157.50" arrivalPos="93.20" duration="152.00" routeLength="221.24" timeLoss="7.99" maxSpeed="1.54"/>
    </personinfo>
    <tripinfo id="NW_23" depart="69.00" departLane="5_1_1" departPos="5.10" departSpeed="0.00" departDelay="0.00" arrival="160.00" arrivalLane="1_2_1" arrivalPos="186.40" arrivalSpeed="13.00" duration="91.00" routeLength="379.43" waitingTime="39.50" waitingCount="7" stopTime="0.00" timeLoss="60.71" rerouteNo="0" devices="tripinfo_NW_23 ssm_NW_23" vType="cars" speedFactor="1.06" vaporized=""/>
    <tripinfo id="NW_36" depart="101.00" departLane="5_1_1" departPos="5.10" departSpeed="0.00" departDelay="0.00" arrival="165.50" arrivalLane="1_2_1" arrivalPos="186.40" arrivalSpeed="13.00" duration="64.50" routeLength="379.43" waitingTime="19.50" waitingCount="3" stopTime="0.00" timeLoss="34.62" rerouteNo="0" devices="tripinfo_NW_36 ssm_NW_36" vType="cars" speedFactor="0.99" vaporized=""/>
    <tripinfo id="WE_6" depart="78.00" departLane="2_1_2" departPos="5.10" departSpeed="0.00" departDelay="1.00" arrival="166.00" arrivalLane="1_4_1" arrivalPos="186.40" arrivalSpeed="13.00" duration="88.00" routeLength="395.15" waitingTime="45.00" waitingCount="1" stopTime="0.00" timeLoss="57.55" rerouteNo="0" devices="tripinfo_WE_6 ssm_WE_6" vType="cars" speedFactor="1.11" vaporized=""/>
    <tripinfo id="WE_8" depart="92.00" departLane="2_1_2" departPos="5.10" departSpeed="0.00" departDelay="0.00" arrival="166.00" arrivalLane="1_4_2" arrivalPos="186.40" arrivalSpeed="13.00" duration="74.00" routeLength="395.15" waitingTime="33.50" waitingCount="1" stopTime="0.00" timeLoss="43.55" rerouteNo="0" devices="tripinfo_WE_8 ssm_WE_8" vType="cars" speedFactor="0.97" vaporized=""/>
    <tripinfo id="EW_7" depart="111.00" departLane="4_1_2" departPos="5.10" departSpeed="0.00" departDelay="0.00" arrival="166.00" arrivalLane="1_2_2" arrivalPos="186.40" arrivalSpeed="13.00" duration="55.00" routeLength="395.15" waitingTime="13.50" waitingCount="1" stopTime="0.00" timeLoss="24.55" rerouteNo="0" devices="tripinfo_EW_7 ssm_EW_7" vType="cars" speedFactor="0.99" vaporized=""/>
    <tripinfo id="WE_7" depart="89.00" departLane="2_1_2" departPos="5.10" departSpeed="0.00" departDelay="0.00" arrival="167.50" arrivalLane="1_4_1" arrivalPos="186.40" arrivalSpeed="13.00" duration="78.50" routeLength="395.15" waitingTime="32.00" waitingCount="3" stopTime="0.00" timeLoss="48.09" rerouteNo="0" devices="tripinfo_WE_7 ssm_WE_7" vType="cars" speedFactor="0.83" vaporized=""/>
    <tripinfo id="WE_9" depart="106.00" departLane="2_1_2" departPos="5.10" departSpeed="0.00" departDelay="0.00" arrival="167.50" arrivalLane="1_4_2" arrivalPos="186.40" arrivalSpeed="13.00" duration="61.50" routeLength="395.15" waitingTime="15.50" waitingCount="5" stopTime="0.00" timeLoss="31.09" rerouteNo="0" devices="tripinfo_WE_9 ssm_WE_9" vType="cars" speedFactor="1.12" vaporized=""/>
    <tripinfo id="EW_8" depart="123.00" departLane="4_1_2" departPos="5.10" departSpeed="0.00" departDelay="0.00" arrival="167.50" arrivalLane="1_2_2" arrivalPos="186.40" arrivalSpeed="13.00" duration="44.50" routeLength="395.15" waitingTime="0.00" waitingCount="0" stopTime="0.00" timeLoss="14.09" rerouteNo="0" devices="tripinfo_EW_8 ssm_EW_8" vType="cars" speedFactor="1.00" vaporized=""/>
    <tripinfo id="EW_6" depart="92.00" departLane="4_1_2" departPos="5.10" departSpeed="0.00" departDelay="0.00" arrival="168.00" arrivalLane="1_2_1" arrivalPos="186.40" arrivalSpeed="13.00" duration="76.00" routeLength="395.15" waitingTime="34.00" waitingCount="2" stopTime="0.00" timeLoss="45.49" rerouteNo="0" devices="tripinfo_EW_6 ssm_EW_6" vType="cars" speedFactor="1.14" vaporized=""/>
    <personinfo id="person_EW_n.0" depart="10.50" type="DEFAULT_PEDTYPE" speedFactor="1.06" duration="161.00" waitingTime="0.00" timeLoss="11.17" traveltime="161.00">
        <walk depart="10.50" departPos="100.00" arrival="171.50" arrivalPos="93.20" duration="161.00" routeLength="221.32" timeLoss="11.17" maxSpeed="1.48"/>
    </personinfo>
    <tripinfo id="EW_9" depart="128.00" departLane="4_1_2" departPos="5.10" departSpeed="0.00" departDelay="0.00" arrival="174.50" arrivalLane="1_2_1" arrivalPos="186.40" arrivalSpeed="9.62" duration="46.50" routeLength="395.15" waitingTime="0.00" waitingCount="0" stopTime="0.00" timeLoss="16.08" rerouteNo="0" devices="tripinfo_EW_9 ssm_EW_9" vType="cars" speedFactor="1.09" vaporized=""/>
    <tripinfo id="WE_11" depart="118.50" departLane="2_1_2" departPos="5.10" departSpeed="0.00" departDelay="1.50" arrival="175.50" arrivalLane="1_4_1" arrivalPos="186.40" arrivalSpeed="9.29" duration="57.00" routeLength="395.15" waitingTime="2.00" waitingCount="4" stopTime="0.00" timeLoss="26.46" rerouteNo="0" devices="tripinfo_WE_11 ssm_WE_11" vType="cars" speedFactor="1.04" vaporized=""/>
    <tripinfo id="WE_10" depart="116.00" departLane="2_1_2" departPos="5.10" departSpeed="0.00" departDelay="0.00" arrival="176.00" arrivalLane="1_4_2" arrivalPos="186.40" arrivalSpeed="9.11" duration="60.00" routeLength="395.15" waitingTime="8.00" waitingCount="4" stopTime="0.00" timeLoss="29.43" rerouteNo="0" devices="tripinfo_WE_10 ssm_WE_10" vType="cars" speedFactor="0.98" vaporized=""/>
    <tripinfo id="WE_13" depart="123.50" departLane="2_1_2" departPos="5.10" departSpeed="0.00" departDelay="4.50" arrival="177.00" arrivalLane="1_4_1" arrivalPos="186.40" arrivalSpeed="13.00" duration="53.50" routeLength="395.15" waitingTime="0.00" waitingCount="0" stopTime="0.00" timeLoss="22.82" rerouteNo="0" devices="tripinfo_WE_13 ssm_WE_13" vType="cars" speedFactor="1.14" vaporized=""/>
    <tripinfo id="WE_12" depart="121.00" departLane="2_1_2" departPos="5.10" departSpeed="0.00" departDelay="3.00" arrival="177.50" arrivalLane="1_4_2" arrivalPos="186.40" arrivalSpeed="13.00" duration="56.50" routeLength="395.15" waitingTime="1.00" waitingCount="2" stopTime="0.00" timeLoss="25.80" rerouteNo="0" devices="tripinfo_WE_12 ssm_WE_12" vType="cars" speedFactor="0.84" vaporized=""/>
    <tripinfo id="WE_15" depart="129.00" departLane="2_1_2" departPos="5.10" departSpeed="0.00" departDelay="4.00" arrival="178.50" arrivalLane="1_4_1" arrivalPos="186.40" arrivalSpeed="13.00" duration="49.50" routeLength="395.15" waitingTime="0.00" waitingCount="0" stopTime="0.00" timeLoss="18.77" rerouteNo="0" devices="tripinfo_WE_15 ssm_WE_15" vType="cars" speedFactor="1.10" vaporized=""/>
    <tripinfo id="WE_14" depart="126.00" departLane="2_1_2" departPos="5.10" departSpeed="0.00" departDelay="4.00" arrival="179.00" arrivalLane="1_4_2" arrivalPos="186.40" arrivalSpeed="13.00" duration="53.00" routeLength="395.15" waitingTime="0.00" waitingCount="0" stopTime="0.00" timeLoss="22.21" rerouteNo="0" devices="tripinfo_WE_14 ssm_WE_14" vType="cars" speedFactor="0.95" vaporized=""/>
    <personinfo id="person_WE_s.0" depart="1.50" type="DEFAULT_PEDTYPE" speedFactor="0.98" duration="180.50" waitingTime="0.00" timeLoss="17.21" traveltime="180.50">
        <walk depart="1.50" departPos="100.00" arrival="182.00" arrivalPos="93.20" duration="180.50" routeLength="221.17" timeLoss="17.21" maxSpeed="1.35"/>
    </personinfo>
    <tripinfo id="EW_10" depart="144.00" departLane="4_1_2" departPos="5.10" departSpeed="0.00" departDelay="0.00" arrival="182.00" arrivalLane="1_2_2" arrivalPos="186.40" arrivalSpeed="11.00" duration="38.00" routeLength="395.15" waitingTime="0.00" waitingCount="0" stopTime="0.00" timeLoss="7.33" rerouteNo="0" devices="tripinfo_EW_10 ssm_EW_10" vType="cars" speedFactor="1.04" vaporized=""/>
    <personinfo id="person_SN_e.2" depart="14.00" type="DEFAULT_PEDTYPE" speedFactor="1.13" duration="175.00" waitingTime="0.00" timeLoss="34.48" traveltime="175.00">
        <walk depart="14.00" departPos="100.00" arrival="189.00" arrivalPos="93.20" duration="175.00" routeLength="221.24" timeLoss="34.48" maxSpeed="1.57"/>
    </personinfo>
    <tripinfo id="WS_48" depart="134.00" departLane="2_1_1" departPos="5.10" departSpeed="0.00" departDelay="0.00" arrival="190.50" arrivalLane="1_3_1" arrivalPos="186.40" arrivalSpeed="13.00" duration="56.50" routeLength="379.43" waitingTime="15.50" waitingCount="1" stopTime="0.00" timeLoss="26.11" rerouteNo="0" devices="tripinfo_WS_48 ssm_WS_48" vType="cars" speedFactor="0.99" vaporized=""/>
    <personinfo id="person_NS_w.2" depart="37.00" type="DEFAULT_PEDTYPE" speedFactor="1.10" duration="156.50" waitingTime="0.00" timeLoss="12.31" traveltime="156.50">
        <walk depart="37.00" departPos="100.00" arrival="193.50" arrivalPos="93.20" duration="156.50" routeLength="221.25" timeLoss="12.31" maxSpeed="1.53"/>
    </personinfo>
    <tripinfo id="NS_42" depart="122.00" departLane="5_1_2" departPos="5.10" departSpeed="0.00" departDelay="0.00" arrival="194.00" arrivalLane="1_3_2" arrivalPos="186.40" arrivalSpeed="13.00" duration="72.00" routeLength="395.15" waitingTime="29.00" waitingCount="1" stopTime="0.00" timeLoss="41.55" rerouteNo="0" devices="tripinfo_NS_42 ssm_NS_42" vType="cars" speedFactor="0.89" vaporized=""/>