<?xml version="1.0" encoding="UTF-8"?>

<!-- generated on 2025-04-29 15:53:53 by Eclipse SUMO GUI Version 1.22.0
<sumoConfiguration xmlns:xsi="http://www.w3.org/2001/XMLSchema-instance" xsi:noNamespaceSchemaLocation="http://sumo.dlr.de/xsd/sumoConfiguration.xsd">

    <input>
        <net-file value="/home/naderian/Desktop/Shakiba/MMSVCC/environment/network_model/single_intersection_bike.net.xml"/>
        <route-files value="/home/naderian/Desktop/Shakiba/MMSVCC/environment/network_model/single_intersection.rou.xml"/>
        <additional-files value="/home/naderian/Desktop/Shakiba/MMSVCC/environment/network_model/single_intersection_Concurrent.add.xml"/>
    </input>

    <output>
        <queue-output value="/home/naderian/Desktop/Shakiba/MMSVCC/environment/simulation_data/single_intersection/queues_multi_scale_symmetric_pene_100.xml"/>
        <tripinfo-output value="/home/naderian/Desktop/Shakiba/MMSVCC/environment/simulation_data/single_intersection/tripinfo_multi_scale_symmetric_pene_100.xml"/>
    </output>

    <time>
        <begin value="0"/>
        <step-length value="0.5"/>
    </time>

    <processing>
        <waiting-time-memory value="1000"/>
    </processing>

    <report>
        <verbose value="true"/>
        <no-step-log value="true"/>
    </report>

    <traci_server>
        <remote-port value="38839"/>
    </traci_server>

    <gui_only>
        <start value="true"/>
    </gui_only>

</sumoConfiguration>
-->

<tripinfos xmlns:xsi="http://www.w3.org/2001/XMLSchema-instance" xsi:noNamespaceSchemaLocation="http://sumo.dlr.de/xsd/tripinfo_file.xsd">
    <tripinfo id="SN_0" depart="0.00" departLane="3_1_3" departPos="5.10" departSpeed="0.00" departDelay="0.00" arrival="35.00" arrivalLane="1_5_2" arrivalPos="185.90" arrivalSpeed="13.00" duration="35.00" routeLength="395.14" waitingTime="0.00" waitingCount="0" stopTime="0.00" timeLoss="4.21" rerouteNo="0" devices="tripinfo_SN_0" vType="cars" speedFactor="1.04" vaporized=""/>
    <tripinfo id="NS_1" depart="1.00" departLane="5_1_3" departPos="5.10" departSpeed="0.00" departDelay="0.00" arrival="37.00" arrivalLane="1_3_2" arrivalPos="185.90" arrivalSpeed="13.00" duration="36.00" routeLength="395.14" waitingTime="0.00" waitingCount="0" stopTime="0.00" timeLoss="5.30" rerouteNo="0" devices="tripinfo_NS_1" vType="cars" speedFactor="0.95" vaporized=""/>
    <tripinfo id="SN_2" depart="5.00" departLane="3_1_3" departPos="5.10" departSpeed="0.00" departDelay="0.00" arrival="41.50" arrivalLane="1_5_2" arrivalPos="185.90" arrivalSpeed="13.00" duration="36.50" routeLength="395.14" waitingTime="0.00" waitingCount="0" stopTime="0.00" timeLoss="5.76" rerouteNo="0" devices="tripinfo_SN_2" vType="cars" speedFactor="0.85" vaporized=""/>
    <tripinfo id="SE_4" depart="9.00" departLane="3_1_2" departPos="5.10" departSpeed="0.00" departDelay="0.00" arrival="44.00" arrivalLane="1_4_2" arrivalPos="185.90" arrivalSpeed="13.00" duration="35.00" routeLength="379.23" waitingTime="0.00" waitingCount="0" stopTime="0.00" timeLoss="5.25" rerouteNo="0" devices="tripinfo_SE_4" vType="cars" speedFactor="1.10" vaporized=""/>
    <tripinfo id="NS_5" depart="11.00" departLane="5_1_3" departPos="5.10" departSpeed="0.00" departDelay="0.00" arrival="46.50" arrivalLane="1_3_2" arrivalPos="185.90" arrivalSpeed="13.00" duration="35.50" routeLength="395.14" waitingTime="0.00" waitingCount="0" stopTime="0.00" timeLoss="5.07" rerouteNo="0" devices="tripinfo_NS_5" vType="cars" speedFactor="1.17" vaporized=""/>
    <tripinfo id="NS_8" depart="17.00" departLane="5_1_3" departPos="5.10" departSpeed="0.00" departDelay="0.00" arrival="53.00" arrivalLane="1_3_2" arrivalPos="185.90" arrivalSpeed="13.00" duration="36.00" routeLength="395.14" waitingTime="0.00" waitingCount="0" stopTime="0.00" timeLoss="5.23" rerouteNo="0" devices="tripinfo_NS_8" vType="cars" speedFactor="1.01" vaporized=""/>
    <tripinfo id="SN_9" depart="18.00" departLane="3_1_3" departPos="5.10" departSpeed="0.00" departDelay="0.00" arrival="53.50" arrivalLane="1_5_2" arrivalPos="185.90" arrivalSpeed="13.00" duration="35.50" routeLength="395.14" waitingTime="0.00" waitingCount="0" stopTime="0.00" timeLoss="4.71" rerouteNo="0" devices="tripinfo_SN_9" vType="cars" speedFactor="1.04" vaporized=""/>
    <tripinfo id="NS_11" depart="20.00" departLane="5_1_3" departPos="5.10" departSpeed="0.00" departDelay="0.00" arrival="59.00" arrivalLane="1_3_2" arrivalPos="185.90" arrivalSpeed="11.00" duration="39.00" routeLength="395.14" waitingTime="0.00" waitingCount="0" stopTime="0.00" timeLoss="8.39" rerouteNo="0" devices="tripinfo_NS_11" vType="cars" speedFactor="1.00" vaporized=""/>
    <tripinfo id="NS_13" depart="26.00" departLane="5_1_3" departPos="5.10" departSpeed="0.00" departDelay="0.00" arrival="62.00" arrivalLane="1_3_2" arrivalPos="185.90" arrivalSpeed="13.00" duration="36.00" routeLength="395.14" waitingTime="0.00" waitingCount="0" stopTime="0.00" timeLoss="5.38" rerouteNo="0" devices="tripinfo_NS_13" vType="cars" speedFactor="0.89" vaporized=""/>
    <tripinfo id="SN_12" depart="25.00" departLane="3_1_3" departPos="5.10" departSpeed="0.00" departDelay="0.00" arrival="63.50" arrivalLane="1_5_2" arrivalPos="185.90" arrivalSpeed="11.00" duration="38.50" routeLength="395.14" waitingTime="0.00" waitingCount="0" stopTime="0.00" timeLoss="8.11" rerouteNo="0" devices="tripinfo_SN_12" vType="cars" speedFactor="0.97" vaporized=""/>
    <tripinfo id="NS_14" depart="29.00" departLane="5_1_3" departPos="5.10" departSpeed="0.00" departDelay="2.00" arrival="64.00" arrivalLane="1_3_2" arrivalPos="185.90" arrivalSpeed="13.00" duration="35.00" routeLength="395.14" waitingTime="0.00" waitingCount="0" stopTime="0.00" timeLoss="4.60" rerouteNo="0" devices="tripinfo_NS_14" vType="cars" speedFactor="0.84" vaporized=""/>
    <tripinfo id="SN_15" depart="29.00" departLane="3_1_3" departPos="5.10" departSpeed="0.00" departDelay="0.00" arrival="64.00" arrivalLane="1_5_3" arrivalPos="185.90" arrivalSpeed="13.00" duration="35.00" routeLength="395.14" waitingTime="0.00" waitingCount="0" stopTime="0.00" timeLoss="4.25" rerouteNo="0" devices="tripinfo_SN_15" vType="cars" speedFactor="0.90" vaporized=""/>
    <tripinfo id="NS_16" depart="31.50" departLane="5_1_3" departPos="5.10" departSpeed="0.00" departDelay="1.50" arrival="67.50" arrivalLane="1_3_2" arrivalPos="185.90" arrivalSpeed="13.00" duration="36.00" routeLength="395.14" waitingTime="0.00" waitingCount="0" stopTime="0.00" timeLoss="5.41" rerouteNo="0" devices="tripinfo_NS_16" vType="cars" speedFactor="1.13" vaporized=""/>
    <tripinfo id="SN_17" depart="33.00" departLane="3_1_3" departPos="5.10" departSpeed="0.00" departDelay="0.00" arrival="68.00" arrivalLane="1_5_2" arrivalPos="185.90" arrivalSpeed="13.00" duration="35.00" routeLength="395.14" waitingTime="0.00" waitingCount="0" stopTime="0.00" timeLoss="4.40" rerouteNo="0" devices="tripinfo_SN_17" vType="cars" speedFactor="1.00" vaporized=""/>
    <tripinfo id="WE_0" depart="1.00" departLane="2_1_3" departPos="5.10" departSpeed="0.00" departDelay="0.00" arrival="80.00" arrivalLane="1_4_2" arrivalPos="185.90" arrivalSpeed="13.00" duration="79.00" routeLength="395.14" waitingTime="40.50" waitingCount="1" stopTime="0.00" timeLoss="48.59" rerouteNo="0" devices="tripinfo_WE_0" vType="cars" speedFactor="0.86" vaporized=""/>
    <tripinfo id="WE_1" depart="12.00" departLane="2_1_3" departPos="5.10" departSpeed="0.00" departDelay="0.00" arrival="80.00" arrivalLane="1_4_3" arrivalPos="185.90" arrivalSpeed="13.00" duration="68.00" routeLength="395.14" waitingTime="29.00" waitingCount="2" stopTime="0.00" timeLoss="37.59" rerouteNo="0" devices="tripinfo_WE_1" vType="cars" speedFactor="1.12" vaporized=""/>
    <tripinfo id="EW_0" depart="22.00" departLane="4_1_3" departPos="5.10" departSpeed="0.00" departDelay="0.00" arrival="80.00" arrivalLane="1_2_3" arrivalPos="185.90" arrivalSpeed="13.00" duration="58.00" routeLength="395.14" waitingTime="20.00" waitingCount="1" stopTime="0.00" timeLoss="27.59" rerouteNo="0" devices="tripinfo_EW_0" vType="cars" speedFactor="0.96" vaporized=""/>
    <tripinfo id="EW_1" depart="42.00" departLane="4_1_3" departPos="5.10" departSpeed="0.00" departDelay="0.00" arrival="81.50" arrivalLane="1_2_2" arrivalPos="185.90" arrivalSpeed="13.00" duration="39.50" routeLength="395.14" waitingTime="0.00" waitingCount="0" stopTime="0.00" timeLoss="9.03" rerouteNo="0" devices="tripinfo_EW_1" vType="cars" speedFactor="1.13" vaporized=""/>
    <tripinfo id="WE_2" depart="22.00" departLane="2_1_3" departPos="5.10" departSpeed="0.00" departDelay="0.00" arrival="82.00" arrivalLane="1_4_3" arrivalPos="185.90" arrivalSpeed="13.00" duration="60.00" routeLength="395.14" waitingTime="14.50" waitingCount="1" stopTime="0.00" timeLoss="29.13" rerouteNo="0" devices="tripinfo_WE_2" vType="cars" speedFactor="1.17" vaporized=""/>
    <tripinfo id="EW_2" depart="46.00" departLane="4_1_3" departPos="5.10" departSpeed="0.00" departDelay="0.00" arrival="83.50" arrivalLane="1_2_2" arrivalPos="185.90" arrivalSpeed="13.00" duration="37.50" routeLength="395.14" waitingTime="0.00" waitingCount="0" stopTime="0.00" timeLoss="6.78" rerouteNo="0" devices="tripinfo_EW_2" vType="cars" speedFactor="0.95" vaporized=""/>
    <tripinfo id="WE_4" depart="50.00" departLane="2_1_3" departPos="5.10" departSpeed="0.00" departDelay="0.00" arrival="86.00" arrivalLane="1_4_3" arrivalPos="185.90" arrivalSpeed="13.00" duration="36.00" routeLength="395.14" waitingTime="0.00" waitingCount="0" stopTime="0.00" timeLoss="5.56" rerouteNo="0" devices="tripinfo_WE_4" vType="cars" speedFactor="0.99" vaporized=""/>
    <tripinfo id="WS_3" depart="7.00" departLane="2_1_2" departPos="5.10" departSpeed="0.00" departDelay="0.00" arrival="87.50" arrivalLane="1_3_2" arrivalPos="185.90" arrivalSpeed="13.00" duration="80.50" routeLength="379.23" waitingTime="33.50" waitingCount="7" stopTime="0.00" timeLoss="50.40" rerouteNo="0" devices="tripinfo_WS_3" vType="cars" speedFactor="0.93" vaporized=""/>
    <tripinfo id="EN_10" depart="20.00" departLane="4_1_2" departPos="5.10" departSpeed="0.00" departDelay="0.00" arrival="87.50" arrivalLane="1_5_2" arrivalPos="185.90" arrivalSpeed="13.00" duration="67.50" routeLength="379.23" waitingTime="27.50" waitingCount="3" stopTime="0.00" timeLoss="37.41" rerouteNo="0" devices="tripinfo_EN_10" vType="cars" speedFactor="0.98" vaporized=""/>
    <tripinfo id="WE_3" depart="27.00" departLane="2_1_3" departPos="5.10" departSpeed="0.00" departDelay="0.00" arrival="89.00" arrivalLane="1_4_2" arrivalPos="185.90" arrivalSpeed="9.44" duration="62.00" routeLength="395.14" waitingTime="10.00" waitingCount="2" stopTime="0.00" timeLoss="31.57" rerouteNo="0" devices="tripinfo_WE_3" vType="cars" speedFactor="1.02" vaporized=""/>
    <tripinfo id="SN-bike.0" depart="15.00" departLane="3_1_1" departPos="1.70" departSpeed="0.00" departDelay="0.16" arrival="91.50" arrivalLane="1_5_1" arrivalPos="185.90" arrivalSpeed="5.45" duration="76.50" routeLength="398.54" waitingTime="0.00" waitingCount="0" stopTime="0.00" timeLoss="4.28" rerouteNo="0" devices="tripinfo_SN-bike.0" vType="bike" speedFactor="1.00" vaporized=""/>
    <tripinfo id="EW_3" depart="59.00" departLane="4_1_3" departPos="5.10" departSpeed="0.00" departDelay="0.00" arrival="95.00" arrivalLane="1_2_2" arrivalPos="185.90" arrivalSpeed="13.00" duration="36.00" routeLength="395.14" waitingTime="0.00" waitingCount="0" stopTime="0.00" timeLoss="5.36" rerouteNo="0" devices="tripinfo_EW_3" vType="cars" speedFactor="0.83" vaporized=""/>
    <tripinfo id="EW_4" depart="62.00" departLane="4_1_3" departPos="5.10" departSpeed="0.00" departDelay="0.00" arrival="100.50" arrivalLane="1_2_2" arrivalPos="185.90" arrivalSpeed="11.00" duration="38.50" routeLength="395.14" waitingTime="0.00" waitingCount="0" stopTime="0.00" timeLoss="8.10" rerouteNo="0" devices="tripinfo_EW_4" vType="cars" speedFactor="0.98" vaporized=""/>
    <tripinfo id="WE-bike.2" depart="8.50" departLane="2_1_1" departPos="1.70" departSpeed="0.00" departDelay="0.03" arrival="100.50" arrivalLane="1_4_1" arrivalPos="185.90" arrivalSpeed="6.33" duration="92.00" routeLength="398.54" waitingTime="18.50" waitingCount="1" stopTime="0.00" timeLoss="31.36" rerouteNo="0" devices="tripinfo_WE-bike.2" vType="bike" speedFactor="1.19" vaporized=""/>
    <tripinfo id="WE-bike.0" depart="1.50" departLane="2_1_2" departPos="1.70" departSpeed="0.00" departDelay="0.54" arrival="102.00" arrivalLane="1_4_1" arrivalPos="185.90" arrivalSpeed="5.68" duration="100.50" routeLength="398.54" waitingTime="24.50" waitingCount="1" stopTime="0.00" timeLoss="33.03" rerouteNo="0" devices="tripinfo_WE-bike.0" vType="bike" speedFactor="1.06" vaporized=""/>
    <tripinfo id="WS-bike.0" depart="17.00" departLane="2_1_2" departPos="1.70" departSpeed="0.00" departDelay="0.05" arrival="102.50" arrivalLane="1_3_1" arrivalPos="185.90" arrivalSpeed="5.74" duration="85.50" routeLength="379.27" waitingTime="10.50" waitingCount="1" stopTime="0.00" timeLoss="21.68" rerouteNo="0" devices="tripinfo_WS-bike.0" vType="bike" speedFactor="1.07" vaporized=""/>
    <tripinfo id="EW-bike.0" depart="9.00" departLane="4_1_1" departPos="1.70" departSpeed="0.00" departDelay="0.21" arrival="103.00" arrivalLane="1_2_1" arrivalPos="185.90" arrivalSpeed="5.81" duration="94.00" routeLength="398.54" waitingTime="16.50" waitingCount="1" stopTime="0.00" timeLoss="25.09" rerouteNo="0" devices="tripinfo_EW-bike.0" vType="bike" speedFactor="1.05" vaporized=""/>
    <tripinfo id="WS_6" depart="14.00" departLane="2_1_2" departPos="5.10" departSpeed="0.00" departDelay="0.00" arrival="104.00" arrivalLane="1_3_2" arrivalPos="185.90" arrivalSpeed="13.00" duration="90.00" routeLength="379.23" waitingTime="34.00" waitingCount="7" stopTime="0.00" timeLoss="59.95" rerouteNo="0" devices="tripinfo_WS_6" vType="cars" speedFactor="1.02" vaporized=""/>
    <tripinfo id="EW-bike.1" depart="15.50" departLane="4_1_1" departPos="1.70" departSpeed="0.00" departDelay="0.11" arrival="104.00" arrivalLane="1_2_1" arrivalPos="185.90" arrivalSpeed="5.67" duration="88.50" routeLength="398.54" waitingTime="9.00" waitingCount="1" stopTime="0.00" timeLoss="20.60" rerouteNo="0" devices="tripinfo_EW-bike.1" vType="bike" speedFactor="1.06" vaporized=""/>
    <tripinfo id="WE_5" depart="75.00" departLane="2_1_3" departPos="5.10" departSpeed="0.00" departDelay="0.00" arrival="110.00" arrivalLane="1_4_2" arrivalPos="185.90" arrivalSpeed="13.00" duration="35.00" routeLength="395.14" waitingTime="0.00" waitingCount="0" stopTime="0.00" timeLoss="4.48" rerouteNo="0" devices="tripinfo_WE_5" vType="cars" speedFactor="1.24" vaporized=""/>
    <tripinfo id="EW-bike.2" depart="29.00" departLane="4_1_1" departPos="1.70" departSpeed="0.00" departDelay="0.38" arrival="110.00" arrivalLane="1_2_1" arrivalPos="185.90" arrivalSpeed="5.06" duration="81.00" routeLength="398.54" waitingTime="0.00" waitingCount="0" stopTime="0.00" timeLoss="4.61" rerouteNo="0" devices="tripinfo_EW-bike.2" vType="bike" speedFactor="0.94" vaporized=""/>
    <tripinfo id="EW_5" depart="76.00" departLane="4_1_3" departPos="5.10" departSpeed="0.00" departDelay="0.00" arrival="111.00" arrivalLane="1_2_2" arrivalPos="185.90" arrivalSpeed="13.00" duration="35.00" routeLength="395.14" waitingTime="0.00" waitingCount="0" stopTime="0.00" timeLoss="4.25" rerouteNo="0" devices="tripinfo_EW_5" vType="cars" speedFactor="1.06" vaporized=""/>
    <tripinfo id="WE-bike.1" depart="6.50" departLane="2_1_1" departPos="1.70" departSpeed="0.00" departDelay="0.48" arrival="112.50" arrivalLane="1_4_1" arrivalPos="185.90" arrivalSpeed="4.65" duration="106.00" routeLength="398.54" waitingTime="13.00" waitingCount="1" stopTime="0.00" timeLoss="24.52" rerouteNo="0" devices="tripinfo_WE-bike.1" vType="bike" speedFactor="0.88" vaporized=""/>
    <tripinfo id="WE_6" depart="77.50" departLane="2_1_3" departPos="5.10" departSpeed="0.00" departDelay="0.50" arrival="116.00" arrivalLane="1_4_2" arrivalPos="185.90" arrivalSpeed="11.00" duration="38.50" routeLength="395.14" waitingTime="0.00" waitingCount="0" stopTime="0.00" timeLoss="8.01" rerouteNo="0" devices="tripinfo_WE_6" vType="cars" speedFactor="0.93" vaporized=""/>
    <tripinfo id="WE-bike.3" depart="51.50" departLane="2_1_1" departPos="1.70" departSpeed="0.00" departDelay="0.45" arrival="119.50" arrivalLane="1_4_1" arrivalPos="185.90" arrivalSpeed="6.08" duration="68.00" routeLength="398.54" waitingTime="0.00" waitingCount="0" stopTime="0.00" timeLoss="4.91" rerouteNo="0" devices="tripinfo_WE-bike.3" vType="bike" speedFactor="1.14" vaporized=""/>
    <tripinfo id="NS_22" depart="66.00" departLane="5_1_3" departPos="5.10" departSpeed="0.00" departDelay="0.00" arrival="122.00" arrivalLane="1_3_2" arrivalPos="185.90" arrivalSpeed="13.00" duration="56.00" routeLength="395.14" waitingTime="16.50" waitingCount="1" stopTime="0.00" timeLoss="25.59" rerouteNo="0" devices="tripinfo_NS_22" vType="cars" speedFactor="0.93" vaporized=""/>
    <tripinfo id="EW-bike.3" depart="51.00" departLane="4_1_1" departPos="1.70" departSpeed="0.00" departDelay="0.21" arrival="122.50" arrivalLane="1_2_1" arrivalPos="185.90" arrivalSpeed="5.72" duration="71.50" routeLength="398.54" waitingTime="0.00" waitingCount="0" stopTime="0.00" timeLoss="4.60" rerouteNo="0" devices="tripinfo_EW-bike.3" vType="bike" speedFactor="1.07" vaporized=""/>
    <tripinfo id="NS_26" depart="75.00" departLane="5_1_3" departPos="5.10" departSpeed="0.00" departDelay="0.00" arrival="123.50" arrivalLane="1_3_3" arrivalPos="185.90" arrivalSpeed="13.00" duration="48.50" routeLength="395.14" waitingTime="3.00" waitingCount="2" stopTime="0.00" timeLoss="17.93" rerouteNo="0" devices="tripinfo_NS_26" vType="cars" speedFactor="1.03" vaporized=""/>
    <tripinfo id="WS-bike.1" depart="45.50" departLane="2_1_2" departPos="1.70" departSpeed="0.00" departDelay="0.12" arrival="124.00" arrivalLane="1_3_1" arrivalPos="185.90" arrivalSpeed="5.43" duration="78.50" routeLength="379.27" waitingTime="2.50" waitingCount="1" stopTime="0.00" timeLoss="10.44" rerouteNo="0" devices="tripinfo_WS-bike.1" vType="bike" speedFactor="1.00" vaporized=""/>
    <tripinfo id="SN_20" depart="40.00" departLane="3_1_3" departPos="5.10" departSpeed="0.00" departDelay="0.00" arrival="125.00" arrivalLane="1_5_3" arrivalPos="185.90" arrivalSpeed="13.00" duration="85.00" routeLength="395.14" waitingTime="38.00" waitingCount="1" stopTime="0.00" timeLoss="54.42" rerouteNo="0" devices="tripinfo_SN_20" vType="cars" speedFactor="0.93" vaporized=""/>
    <tripinfo id="SN_25" depart="74.00" departLane="3_1_3" departPos="5.10" departSpeed="0.00" departDelay="0.00" arrival="126.50" arrivalLane="1_5_2" arrivalPos="185.90" arrivalSpeed="13.00" duration="52.50" routeLength="395.14" waitingTime="4.50" waitingCount="1" stopTime="0.00" timeLoss="21.93" rerouteNo="0" devices="tripinfo_SN_25" vType="cars" speedFactor="0.86" vaporized=""/>
    <tripinfo id="NS_29" depart="83.00" departLane="5_1_3" departPos="5.10" departSpeed="0.00" departDelay="0.00" arrival="128.00" arrivalLane="1_3_3" arrivalPos="185.90" arrivalSpeed="13.00" duration="45.00" routeLength="395.14" waitingTime="1.00" waitingCount="2" stopTime="0.00" timeLoss="14.59" rerouteNo="0" devices="tripinfo_NS_29" vType="cars" speedFactor="1.02" vaporized=""/>
    <tripinfo id="NS_32" depart="87.00" departLane="5_1_3" departPos="5.10" departSpeed="0.00" departDelay="0.00" arrival="128.00" arrivalLane="1_3_2" arrivalPos="185.90" arrivalSpeed="11.00" duration="41.00" routeLength="395.14" waitingTime="0.00" waitingCount="0" stopTime="0.00" timeLoss="10.42" rerouteNo="0" devices="tripinfo_NS_32" vType="cars" speedFactor="0.93" vaporized=""/>
    <tripinfo id="SN_18" depart="36.00" departLane="3_1_3" departPos="5.10" departSpeed="0.00" departDelay="0.00" arrival="128.50" arrivalLane="1_5_2" arrivalPos="185.90" arrivalSpeed="13.00" duration="92.50" routeLength="395.14" waitingTime="49.00" waitingCount="2" stopTime="0.00" timeLoss="61.68" rerouteNo="0" devices="tripinfo_SN_18" vType="cars" speedFactor="0.96" vaporized=""/>
    <tripinfo id="EW-bike.4" depart="53.50" departLane="4_1_1" departPos="1.70" departSpeed="0.00" departDelay="0.50" arrival="129.00" arrivalLane="1_2_1" arrivalPos="185.90" arrivalSpeed="5.40" duration="75.50" routeLength="398.54" waitingTime="0.00" waitingCount="0" stopTime="0.00" timeLoss="4.65" rerouteNo="0" devices="tripinfo_EW-bike.4" vType="bike" speedFactor="1.02" vaporized=""/>
    <tripinfo id="SN_28" depart="81.00" departLane="3_1_3" departPos="5.10" departSpeed="0.00" departDelay="0.00" arrival="133.00" arrivalLane="1_5_3" arrivalPos="185.90" arrivalSpeed="9.49" duration="52.00" routeLength="395.14" waitingTime="0.00" waitingCount="0" stopTime="0.00" timeLoss="21.44" rerouteNo="0" devices="tripinfo_SN_28" vType="cars" speedFactor="0.97" vaporized=""/>
    <tripinfo id="NW_21" depart="53.00" departLane="5_1_2" departPos="5.10" departSpeed="0.00" departDelay="0.00" arrival="134.50" arrivalLane="1_2_2" arrivalPos="185.90" arrivalSpeed="13.00" duration="81.50" routeLength="379.23" waitingTime="42.00" waitingCount="3" stopTime="0.00" timeLoss="51.41" rerouteNo="0" devices="tripinfo_NW_21" vType="cars" speedFactor="1.00" vaporized=""/>
    <tripinfo id="SN_31" depart="86.00" departLane="3_1_3" departPos="5.10" departSpeed="0.00" departDelay="2.00" arrival="134.50" arrivalLane="1_5_2" arrivalPos="185.90" arrivalSpeed="13.00" duration="48.50" routeLength="395.14" waitingTime="0.00" waitingCount="0" stopTime="0.00" timeLoss="17.80" rerouteNo="0" devices="tripinfo_SN_31" vType="cars" speedFactor="0.98" vaporized=""/>
    <tripinfo id="NW_23" depart="69.00" departLane="5_1_2" departPos="5.10" departSpeed="0.00" departDelay="0.00" arrival="136.00" arrivalLane="1_2_2" arrivalPos="185.90" arrivalSpeed="13.00" duration="67.00" routeLength="379.23" waitingTime="18.00" waitingCount="2" stopTime="0.00" timeLoss="37.32" rerouteNo="0" devices="tripinfo_NW_23" vType="cars" speedFactor="1.07" vaporized=""/>
    <tripinfo id="SN_30" depart="83.00" departLane="3_1_3" departPos="5.10" departSpeed="0.00" departDelay="0.00" arrival="136.00" arrivalLane="1_5_3" arrivalPos="185.90" arrivalSpeed="13.00" duration="53.00" routeLength="395.14" waitingTime="1.00" waitingCount="2" stopTime="0.00" timeLoss="22.21" rerouteNo="0" devices="tripinfo_SN_30" vType="cars" speedFactor="0.97" vaporized=""/>
    <tripinfo id="SN_34" depart="97.00" departLane="3_1_3" departPos="5.10" departSpeed="0.00" departDelay="0.00" arrival="137.50" arrivalLane="1_5_3" arrivalPos="185.90" arrivalSpeed="13.00" duration="40.50" routeLength="395.14" waitingTime="0.00" waitingCount="0" stopTime="0.00" timeLoss="9.68" rerouteNo="0" devices="tripinfo_SN_34" vType="cars" speedFactor="1.12" vaporized=""/>
    <tripinfo id="SN_33" depart="90.00" departLane="3_1_3" departPos="5.10" departSpeed="0.00" departDelay="0.00" arrival="138.00" arrivalLane="1_5_2" arrivalPos="185.90" arrivalSpeed="8.82" duration="48.00" routeLength="395.14" waitingTime="0.00" waitingCount="0" stopTime="0.00" timeLoss="17.41" rerouteNo="0" devices="tripinfo_SN_33" vType="cars" speedFactor="0.98" vaporized=""/>
    <tripinfo id="NW_36" depart="101.00" departLane="5_1_2" departPos="5.10" departSpeed="0.00" departDelay="0.00" arrival="138.50" arrivalLane="1_2_2" arrivalPos="185.90" arrivalSpeed="13.00" duration="37.50" routeLength="379.23" waitingTime="0.00" waitingCount="0" stopTime="0.00" timeLoss="7.80" rerouteNo="0" devices="tripinfo_NW_36" vType="cars" speedFactor="1.09" vaporized=""/>
    <tripinfo id="NS_37" depart="105.00" departLane="5_1_3" departPos="5.10" departSpeed="0.00" departDelay="0.00" arrival="141.00" arrivalLane="1_3_2" arrivalPos="185.90" arrivalSpeed="13.00" duration="36.00" routeLength="395.14" waitingTime="0.00" waitingCount="0" stopTime="0.00" timeLoss="5.22" rerouteNo="0" devices="tripinfo_NS_37" vType="cars" speedFactor="1.01" vaporized=""/>
    <tripinfo id="SN_38" depart="107.00" departLane="3_1_3" departPos="5.10" departSpeed="0.00" departDelay="0.00" arrival="142.00" arrivalLane="1_5_2" arrivalPos="185.90" arrivalSpeed="13.00" duration="35.00" routeLength="395.14" waitingTime="0.00" waitingCount="0" stopTime="0.00" timeLoss="4.49" rerouteNo="0" devices="tripinfo_SN_38" vType="cars" speedFactor="0.93" vaporized=""/>
    <tripinfo id="SN_40" depart="110.00" departLane="3_1_3" departPos="5.10" departSpeed="0.00" departDelay="0.00" arrival="146.50" arrivalLane="1_5_2" arrivalPos="185.90" arrivalSpeed="13.00" duration="36.50" routeLength="395.14" waitingTime="0.00" waitingCount="0" stopTime="0.00" timeLoss="5.94" rerouteNo="0" devices="tripinfo_SN_40" vType="cars" speedFactor="1.06" vaporized=""/>
    <tripinfo id="SN-bike.2" depart="72.50" departLane="3_1_1" departPos="1.70" departSpeed="0.00" departDelay="0.48" arrival="147.50" arrivalLane="1_5_1" arrivalPos="185.90" arrivalSpeed="6.03" duration="75.00" routeLength="398.54" waitingTime="0.00" waitingCount="0" stopTime="0.00" timeLoss="11.06" rerouteNo="0" devices="tripinfo_SN-bike.2" vType="bike" speedFactor="1.13" vaporized=""/>
    <tripinfo id="NS-bike.1" depart="80.50" departLane="5_1_1" departPos="1.70" departSpeed="0.00" departDelay="0.26" arrival="152.50" arrivalLane="1_3_1" arrivalPos="185.90" arrivalSpeed="6.19" duration="72.00" routeLength="398.54" waitingTime="0.00" waitingCount="0" stopTime="0.00" timeLoss="8.23" rerouteNo="0" devices="tripinfo_NS-bike.1" vType="bike" speedFactor="1.13" vaporized=""/>
    <tripinfo id="WE_7" depart="89.00" departLane="2_1_3" departPos="5.10" departSpeed="0.00" departDelay="0.00" arrival="154.00" arrivalLane="1_4_2" arrivalPos="185.90" arrivalSpeed="13.00" duration="65.00" routeLength="395.14" waitingTime="26.00" waitingCount="1" stopTime="0.00" timeLoss="34.59" rerouteNo="0" devices="tripinfo_WE_7" vType="cars" speedFactor="0.95" vaporized=""/>
    <tripinfo id="EW_7" depart="111.00" departLane="4_1_3" departPos="5.10" departSpeed="0.00" departDelay="0.00" arrival="154.00" arrivalLane="1_2_3" arrivalPos="185.90" arrivalSpeed="13.00" duration="43.00" routeLength="395.14" waitingTime="4.50" waitingCount="1" stopTime="0.00" timeLoss="12.59" rerouteNo="0" devices="tripinfo_EW_7" vType="cars" speedFactor="1.25" vaporized=""/>
    <tripinfo id="SN-bike.1" depart="53.00" departLane="3_1_1" departPos="1.70" departSpeed="0.00" departDelay="0.00" arrival="154.00" arrivalLane="1_5_1" arrivalPos="185.90" arrivalSpeed="4.89" duration="101.00" routeLength="398.54" waitingTime="9.00" waitingCount="1" stopTime="0.00" timeLoss="19.59" rerouteNo="0" devices="tripinfo_SN-bike.1" vType="bike" speedFactor="0.88" vaporized=""/>
    <tripinfo id="EW_6" depart="92.00" departLane="4_1_3" departPos="5.10" departSpeed="0.00" departDelay="0.00" arrival="154.50" arrivalLane="1_2_2" arrivalPos="185.90" arrivalSpeed="13.00" duration="62.50" routeLength="395.14" waitingTime="20.00" waitingCount="2" stopTime="0.00" timeLoss="32.09" rerouteNo="0" devices="tripinfo_EW_6" vType="cars" speedFactor="1.07" vaporized=""/>
    <tripinfo id="WE_8" depart="92.00" departLane="2_1_3" departPos="5.10" departSpeed="0.00" departDelay="0.00" arrival="155.50" arrivalLane="1_4_3" arrivalPos="185.90" arrivalSpeed="13.00" duration="63.50" routeLength="395.14" waitingTime="19.00" waitingCount="5" stopTime="0.00" timeLoss="32.94" rerouteNo="0" devices="tripinfo_WE_8" vType="cars" speedFactor="0.92" vaporized=""/>
    <tripinfo id="NS-bike.0" depart="77.50" departLane="5_1_1" departPos="1.70" departSpeed="0.00" departDelay="0.24" arrival="155.50" arrivalLane="1_3_1" arrivalPos="185.90" arrivalSpeed="5.39" duration="78.00" routeLength="398.54" waitingTime="0.00" waitingCount="0" stopTime="0.00" timeLoss="4.96" rerouteNo="0" devices="tripinfo_NS-bike.0" vType="bike" speedFactor="0.99" vaporized=""/>
    <tripinfo id="SE_19" depart="39.00" departLane="3_1_2" departPos="5.10" departSpeed="0.00" departDelay="0.00" arrival="157.50" arrivalLane="1_4_2" arrivalPos="185.90" arrivalSpeed="13.00" duration="118.50" routeLength="379.23" waitingTime="70.00" waitingCount="7" stopTime="0.00" timeLoss="88.18" rerouteNo="0" devices="tripinfo_SE_19" vType="cars" speedFactor="0.99" vaporized=""/>
    <tripinfo id="WE_10" depart="119.50" departLane="2_1_3" departPos="5.10" departSpeed="0.00" departDelay="3.50" arrival="157.50" arrivalLane="1_4_3" arrivalPos="185.90" arrivalSpeed="13.00" duration="38.00" routeLength="395.14" waitingTime="0.00" waitingCount="0" stopTime="0.00" timeLoss="7.29" rerouteNo="0" devices="tripinfo_WE_10" vType="cars" speedFactor="1.05" vaporized=""/>
    <tripinfo id="EW_8" depart="123.00" departLane="4_1_3" departPos="5.10" departSpeed="0.00" departDelay="0.00" arrival="158.00" arrivalLane="1_2_2" arrivalPos="185.90" arrivalSpeed="13.00" duration="35.00" routeLength="395.14" waitingTime="0.00" waitingCount="0" stopTime="0.00" timeLoss="4.26" rerouteNo="0" devices="tripinfo_EW_8" vType="cars" speedFactor="0.99" vaporized=""/>
    <tripinfo id="WE_11" depart="122.50" departLane="2_1_3" departPos="5.10" departSpeed="0.00" departDelay="5.50" arrival="159.50" arrivalLane="1_4_3" arrivalPos="185.90" arrivalSpeed="13.00" duration="37.00" routeLength="395.14" waitingTime="0.00" waitingCount="0" stopTime="0.00" timeLoss="6.53" rerouteNo="0" devices="tripinfo_WE_11" vType="cars" speedFactor="1.12" vaporized=""/>
    <tripinfo id="EN_39" depart="109.00" departLane="4_1_2" departPos="5.10" departSpeed="0.00" departDelay="0.00" arrival="162.50" arrivalLane="1_5_2" arrivalPos="185.90" arrivalSpeed="13.00" duration="53.50" routeLength="379.23" waitingTime="6.50" waitingCount="2" stopTime="0.00" timeLoss="23.34" rerouteNo="0" devices="tripinfo_EN_39" vType="cars" speedFactor="1.06" vaporized=""/>