<?xml version="1.0" encoding="UTF-8"?>

<!-- generated on 2025-05-27 20:03:23 by Eclipse SUMO GUI Version 1.22.0
<sumoConfiguration xmlns:xsi="http://www.w3.org/2001/XMLSchema-instance" xsi:noNamespaceSchemaLocation="http://sumo.dlr.de/xsd/sumoConfiguration.xsd">

    <input>
        <net-file value="/home/naderian/Desktop/Shakiba/MMSVCC/environment/network_model/single_intersection_bike.net.xml"/>
        <route-files value="/home/naderian/Desktop/Shakiba/MMSVCC/environment/network_model/single_intersection.rou.xml"/>
        <additional-files value="/home/naderian/Desktop/Shakiba/MMSVCC/environment/network_model/single_intersection_Concurrent.add.xml"/>
    </input>

    <output>
        <queue-output value="/home/naderian/Desktop/Shakiba/MMSVCC/environment/simulation_data/single_intersection/queues_multi_scale_pene_100.xml"/>
        <tripinfo-output value="/home/naderian/Desktop/Shakiba/MMSVCC/environment/simulation_data/single_intersection/tripinfo_multi_scale_pene_100.xml"/>
    </output>

    <time>
        <begin value="0"/>
        <step-length value="0.5"/>
    </time>

    <processing>
        <waiting-time-memory value="1000"/>
    </processing>

    <report>
        <verbose value="true"/>
        <no-step-log value="true"/>
    </report>

    <ssm_device>
        <device.ssm.file value="/home/naderian/Desktop/Shakiba/MMSVCC/environment/simulation_data/single_intersection/SSMinfo_multi_scale_pene_100.xml"/>
    </ssm_device>

    <traci_server>
        <remote-port value="37167"/>
    </traci_server>

    <gui_only>
        <start value="true"/>
    </gui_only>

</sumoConfiguration>
-->

<tripinfos xmlns:xsi="http://www.w3.org/2001/XMLSchema-instance" xsi:noNamespaceSchemaLocation="http://sumo.dlr.de/xsd/tripinfo_file.xsd">
    <tripinfo id="SN_0" depart="0.00" departLane="3_1_3" departPos="5.10" departSpeed="0.00" departDelay="0.00" arrival="35.00" arrivalLane="1_5_2" arrivalPos="185.90" arrivalSpeed="13.00" duration="35.00" routeLength="395.14" waitingTime="0.00" waitingCount="0" stopTime="0.00" timeLoss="4.21" rerouteNo="0" devices="tripinfo_SN_0 ssm_SN_0" vType="cars" speedFactor="1.02" vaporized=""/>
    <tripinfo id="NS_1" depart="1.00" departLane="5_1_3" departPos="5.10" departSpeed="0.00" departDelay="0.00" arrival="37.00" arrivalLane="1_3_2" arrivalPos="185.90" arrivalSpeed="13.00" duration="36.00" routeLength="395.14" waitingTime="0.00" waitingCount="0" stopTime="0.00" timeLoss="5.30" rerouteNo="0" devices="tripinfo_NS_1 ssm_NS_1" vType="cars" speedFactor="1.01" vaporized=""/>
    <tripinfo id="SN_2" depart="5.00" departLane="3_1_3" departPos="5.10" departSpeed="0.00" departDelay="0.00" arrival="41.50" arrivalLane="1_5_2" arrivalPos="185.90" arrivalSpeed="13.00" duration="36.50" routeLength="395.14" waitingTime="0.00" waitingCount="0" stopTime="0.00" timeLoss="5.76" rerouteNo="0" devices="tripinfo_SN_2 ssm_SN_2" vType="cars" speedFactor="1.05" vaporized=""/>
    <tripinfo id="SE_4" depart="9.00" departLane="3_1_2" departPos="5.10" departSpeed="0.00" departDelay="0.00" arrival="44.50" arrivalLane="1_4_2" arrivalPos="185.90" arrivalSpeed="13.00" duration="35.50" routeLength="379.23" waitingTime="0.00" waitingCount="0" stopTime="0.00" timeLoss="5.32" rerouteNo="0" devices="tripinfo_SE_4 ssm_SE_4" vType="cars" speedFactor="0.94" vaporized=""/>
    <tripinfo id="NS_5" depart="11.00" departLane="5_1_3" departPos="5.10" departSpeed="0.00" departDelay="0.00" arrival="46.50" arrivalLane="1_3_2" arrivalPos="185.90" arrivalSpeed="13.00" duration="35.50" routeLength="395.14" waitingTime="0.00" waitingCount="0" stopTime="0.00" timeLoss="5.07" rerouteNo="0" devices="tripinfo_NS_5 ssm_NS_5" vType="cars" speedFactor="0.91" vaporized=""/>
    <tripinfo id="NS_8" depart="17.00" departLane="5_1_3" departPos="5.10" departSpeed="0.00" departDelay="0.00" arrival="53.00" arrivalLane="1_3_2" arrivalPos="185.90" arrivalSpeed="13.00" duration="36.00" routeLength="395.14" waitingTime="0.00" waitingCount="0" stopTime="0.00" timeLoss="5.23" rerouteNo="0" devices="tripinfo_NS_8 ssm_NS_8" vType="cars" speedFactor="0.95" vaporized=""/>
    <tripinfo id="SN_9" depart="18.00" departLane="3_1_3" departPos="5.10" departSpeed="0.00" departDelay="0.00" arrival="53.50" arrivalLane="1_5_2" arrivalPos="185.90" arrivalSpeed="13.00" duration="35.50" routeLength="395.14" waitingTime="0.00" waitingCount="0" stopTime="0.00" timeLoss="4.71" rerouteNo="0" devices="tripinfo_SN_9 ssm_SN_9" vType="cars" speedFactor="0.76" vaporized=""/>
    <tripinfo id="NS_11" depart="20.00" departLane="5_1_3" departPos="5.10" departSpeed="0.00" departDelay="0.00" arrival="59.00" arrivalLane="1_3_2" arrivalPos="185.90" arrivalSpeed="11.00" duration="39.00" routeLength="395.14" waitingTime="0.00" waitingCount="0" stopTime="0.00" timeLoss="8.39" rerouteNo="0" devices="tripinfo_NS_11 ssm_NS_11" vType="cars" speedFactor="1.01" vaporized=""/>
    <tripinfo id="SN_12" depart="25.00" departLane="3_1_3" departPos="5.10" departSpeed="0.00" departDelay="0.00" arrival="60.50" arrivalLane="1_5_2" arrivalPos="185.90" arrivalSpeed="13.00" duration="35.50" routeLength="395.14" waitingTime="0.00" waitingCount="0" stopTime="0.00" timeLoss="4.85" rerouteNo="0" devices="tripinfo_SN_12 ssm_SN_12" vType="cars" speedFactor="0.83" vaporized=""/>
    <tripinfo id="NS_13" depart="26.00" departLane="5_1_3" departPos="5.10" departSpeed="0.00" departDelay="0.00" arrival="62.00" arrivalLane="1_3_2" arrivalPos="185.90" arrivalSpeed="13.00" duration="36.00" routeLength="395.14" waitingTime="0.00" waitingCount="0" stopTime="0.00" timeLoss="5.38" rerouteNo="0" devices="tripinfo_NS_13 ssm_NS_13" vType="cars" speedFactor="0.95" vaporized=""/>
    <tripinfo id="NS_14" depart="29.00" departLane="5_1_3" departPos="5.10" departSpeed="0.00" departDelay="2.00" arrival="64.00" arrivalLane="1_3_2" arrivalPos="185.90" arrivalSpeed="13.00" duration="35.00" routeLength="395.14" waitingTime="0.00" waitingCount="0" stopTime="0.00" timeLoss="4.60" rerouteNo="0" devices="tripinfo_NS_14 ssm_NS_14" vType="cars" speedFactor="0.93" vaporized=""/>
    <tripinfo id="SN_15" depart="29.00" departLane="3_1_3" departPos="5.10" departSpeed="0.00" departDelay="0.00" arrival="66.50" arrivalLane="1_5_2" arrivalPos="185.90" arrivalSpeed="13.00" duration="37.50" routeLength="395.14" waitingTime="0.00" waitingCount="0" stopTime="0.00" timeLoss="6.82" rerouteNo="0" devices="tripinfo_SN_15 ssm_SN_15" vType="cars" speedFactor="0.85" vaporized=""/>
    <tripinfo id="NS_16" depart="31.50" departLane="5_1_3" departPos="5.10" departSpeed="0.00" departDelay="1.50" arrival="67.50" arrivalLane="1_3_2" arrivalPos="185.90" arrivalSpeed="13.00" duration="36.00" routeLength="395.14" waitingTime="0.00" waitingCount="0" stopTime="0.00" timeLoss="5.41" rerouteNo="0" devices="tripinfo_NS_16 ssm_NS_16" vType="cars" speedFactor="1.12" vaporized=""/>
    <tripinfo id="SN_17" depart="33.00" departLane="3_1_3" departPos="5.10" departSpeed="0.00" departDelay="0.00" arrival="69.00" arrivalLane="1_5_2" arrivalPos="185.90" arrivalSpeed="13.00" duration="36.00" routeLength="395.14" waitingTime="0.00" waitingCount="0" stopTime="0.00" timeLoss="5.47" rerouteNo="0" devices="tripinfo_SN_17 ssm_SN_17" vType="cars" speedFactor="1.10" vaporized=""/>
    <tripinfo id="SN_18" depart="36.00" departLane="3_1_3" departPos="5.10" departSpeed="0.00" departDelay="0.00" arrival="72.00" arrivalLane="1_5_2" arrivalPos="185.90" arrivalSpeed="13.00" duration="36.00" routeLength="395.14" waitingTime="0.00" waitingCount="0" stopTime="0.00" timeLoss="5.38" rerouteNo="0" devices="tripinfo_SN_18 ssm_SN_18" vType="cars" speedFactor="0.96" vaporized=""/>
    <tripinfo id="SE_19" depart="39.00" departLane="3_1_2" departPos="5.10" departSpeed="0.00" departDelay="0.00" arrival="77.50" arrivalLane="1_4_2" arrivalPos="185.90" arrivalSpeed="13.00" duration="38.50" routeLength="379.23" waitingTime="1.00" waitingCount="1" stopTime="0.00" timeLoss="8.38" rerouteNo="0" devices="tripinfo_SE_19 ssm_SE_19" vType="cars" speedFactor="0.92" vaporized=""/>
    <tripinfo id="SN_20" depart="40.00" departLane="3_1_3" departPos="5.10" departSpeed="0.00" departDelay="0.00" arrival="79.00" arrivalLane="1_5_3" arrivalPos="185.90" arrivalSpeed="11.00" duration="39.00" routeLength="395.14" waitingTime="0.00" waitingCount="0" stopTime="0.00" timeLoss="8.53" rerouteNo="0" devices="tripinfo_SN_20 ssm_SN_20" vType="cars" speedFactor="0.84" vaporized=""/>
    <tripinfo id="WE_0" depart="1.00" departLane="2_1_3" departPos="5.10" departSpeed="0.00" departDelay="0.00" arrival="86.00" arrivalLane="1_4_2" arrivalPos="185.90" arrivalSpeed="13.00" duration="85.00" routeLength="395.14" waitingTime="46.50" waitingCount="1" stopTime="0.00" timeLoss="54.59" rerouteNo="0" devices="tripinfo_WE_0 ssm_WE_0" vType="cars" speedFactor="1.12" vaporized=""/>
    <tripinfo id="WE_1" depart="12.00" departLane="2_1_3" departPos="5.10" departSpeed="0.00" departDelay="0.00" arrival="86.00" arrivalLane="1_4_3" arrivalPos="185.90" arrivalSpeed="13.00" duration="74.00" routeLength="395.14" waitingTime="32.50" waitingCount="1" stopTime="0.00" timeLoss="43.59" rerouteNo="0" devices="tripinfo_WE_1 ssm_WE_1" vType="cars" speedFactor="1.30" vaporized=""/>
    <tripinfo id="EW_0" depart="22.00" departLane="4_1_3" departPos="5.10" departSpeed="0.00" departDelay="0.00" arrival="86.00" arrivalLane="1_2_2" arrivalPos="185.90" arrivalSpeed="13.00" duration="64.00" routeLength="395.14" waitingTime="26.00" waitingCount="1" stopTime="0.00" timeLoss="33.59" rerouteNo="0" devices="tripinfo_EW_0 ssm_EW_0" vType="cars" speedFactor="1.01" vaporized=""/>
    <tripinfo id="EW_1" depart="42.00" departLane="4_1_3" departPos="5.10" departSpeed="0.00" departDelay="0.00" arrival="87.50" arrivalLane="1_2_3" arrivalPos="185.90" arrivalSpeed="13.00" duration="45.50" routeLength="395.14" waitingTime="0.00" waitingCount="0" stopTime="0.00" timeLoss="14.93" rerouteNo="0" devices="tripinfo_EW_1 ssm_EW_1" vType="cars" speedFactor="1.02" vaporized=""/>
    <tripinfo id="WE_2" depart="22.00" departLane="2_1_3" departPos="5.10" departSpeed="0.00" departDelay="0.00" arrival="88.00" arrivalLane="1_4_3" arrivalPos="185.90" arrivalSpeed="13.00" duration="66.00" routeLength="395.14" waitingTime="19.00" waitingCount="1" stopTime="0.00" timeLoss="35.13" rerouteNo="0" devices="tripinfo_WE_2 ssm_WE_2" vType="cars" speedFactor="0.89" vaporized=""/>
    <tripinfo id="EW_2" depart="46.00" departLane="4_1_3" departPos="5.10" departSpeed="0.00" departDelay="0.00" arrival="90.00" arrivalLane="1_2_3" arrivalPos="185.90" arrivalSpeed="13.00" duration="44.00" routeLength="395.14" waitingTime="0.00" waitingCount="0" stopTime="0.00" timeLoss="13.35" rerouteNo="0" devices="tripinfo_EW_2 ssm_EW_2" vType="cars" speedFactor="1.18" vaporized=""/>
    <tripinfo id="WE_4" depart="50.00" departLane="2_1_3" departPos="5.10" departSpeed="0.00" departDelay="0.00" arrival="92.50" arrivalLane="1_4_2" arrivalPos="185.90" arrivalSpeed="13.00" duration="42.50" routeLength="395.14" waitingTime="0.00" waitingCount="0" stopTime="0.00" timeLoss="11.83" rerouteNo="0" devices="tripinfo_WE_4 ssm_WE_4" vType="cars" speedFactor="1.01" vaporized=""/>
    <tripinfo id="SN-bike.1" depart="21.50" departLane="3_1_4" departPos="1.70" departSpeed="0.00" departDelay="0.02" arrival="92.50" arrivalLane="1_5_1" arrivalPos="185.90" arrivalSpeed="5.85" duration="71.00" routeLength="398.54" waitingTime="0.00" waitingCount="0" stopTime="0.00" timeLoss="4.66" rerouteNo="0" devices="tripinfo_SN-bike.1 ssm_SN-bike.1" vType="bike" speedFactor="1.08" vaporized=""/>
    <tripinfo id="WE_3" depart="27.00" departLane="2_1_3" departPos="5.10" departSpeed="0.00" departDelay="0.00" arrival="95.00" arrivalLane="1_4_2" arrivalPos="185.90" arrivalSpeed="9.44" duration="68.00" routeLength="395.14" waitingTime="15.00" waitingCount="3" stopTime="0.00" timeLoss="37.57" rerouteNo="0" devices="tripinfo_WE_3 ssm_WE_3" vType="cars" speedFactor="1.06" vaporized=""/>
    <tripinfo id="EW_3" depart="60.00" departLane="4_1_3" departPos="5.10" departSpeed="0.00" departDelay="1.00" arrival="96.00" arrivalLane="1_2_3" arrivalPos="185.90" arrivalSpeed="13.00" duration="36.00" routeLength="395.14" waitingTime="0.00" waitingCount="0" stopTime="0.00" timeLoss="5.30" rerouteNo="0" devices="tripinfo_EW_3 ssm_EW_3" vType="cars" speedFactor="0.98" vaporized=""/>
    <tripinfo id="EW_4" depart="62.50" departLane="4_1_3" departPos="5.10" departSpeed="0.00" departDelay="0.50" arrival="98.50" arrivalLane="1_2_3" arrivalPos="185.90" arrivalSpeed="13.00" duration="36.00" routeLength="395.14" waitingTime="0.00" waitingCount="0" stopTime="0.00" timeLoss="5.56" rerouteNo="0" devices="tripinfo_EW_4 ssm_EW_4" vType="cars" speedFactor="0.95" vaporized=""/>
    <tripinfo id="SN-bike.0" depart="15.00" departLane="3_1_2" departPos="1.70" departSpeed="0.00" departDelay="0.16" arrival="104.00" arrivalLane="1_5_1" arrivalPos="185.90" arrivalSpeed="4.60" duration="89.00" routeLength="398.54" waitingTime="0.00" waitingCount="0" stopTime="0.00" timeLoss="4.97" rerouteNo="0" devices="tripinfo_SN-bike.0 ssm_SN-bike.0" vType="bike" speedFactor="0.85" vaporized=""/>
    <tripinfo id="EW-bike.0" depart="9.00" departLane="4_1_2" departPos="1.70" departSpeed="0.00" departDelay="0.21" arrival="106.00" arrivalLane="1_2_1" arrivalPos="185.90" arrivalSpeed="6.11" duration="97.00" routeLength="398.54" waitingTime="24.00" waitingCount="1" stopTime="0.00" timeLoss="32.76" rerouteNo="0" devices="tripinfo_EW-bike.0 ssm_EW-bike.0" vType="bike" speedFactor="1.12" vaporized=""/>
    <tripinfo id="WE-bike.0" depart="1.50" departLane="2_1_2" departPos="1.70" departSpeed="0.00" departDelay="0.54" arrival="107.50" arrivalLane="1_4_1" arrivalPos="185.90" arrivalSpeed="6.01" duration="106.00" routeLength="398.54" waitingTime="30.50" waitingCount="1" stopTime="0.00" timeLoss="39.68" rerouteNo="0" devices="tripinfo_WE-bike.0 ssm_WE-bike.0" vType="bike" speedFactor="1.08" vaporized=""/>
    <tripinfo id="EW-bike.2" depart="37.50" departLane="4_1_3" departPos="1.70" departSpeed="0.00" departDelay="0.34" arrival="109.50" arrivalLane="1_2_1" arrivalPos="185.90" arrivalSpeed="6.27" duration="72.00" routeLength="398.54" waitingTime="0.00" waitingCount="0" stopTime="0.00" timeLoss="8.58" rerouteNo="0" devices="tripinfo_EW-bike.2 ssm_EW-bike.2" vType="bike" speedFactor="1.13" vaporized=""/>
    <tripinfo id="WE_5" depart="75.00" departLane="2_1_3" departPos="5.10" departSpeed="0.00" departDelay="0.00" arrival="110.50" arrivalLane="1_4_3" arrivalPos="185.90" arrivalSpeed="13.00" duration="35.50" routeLength="395.14" waitingTime="0.00" waitingCount="0" stopTime="0.00" timeLoss="4.84" rerouteNo="0" devices="tripinfo_WE_5 ssm_WE_5" vType="cars" speedFactor="1.02" vaporized=""/>
    <tripinfo id="EW-bike.1" depart="18.50" departLane="4_1_2" departPos="1.70" departSpeed="0.00" departDelay="0.23" arrival="111.00" arrivalLane="1_2_1" arrivalPos="185.90" arrivalSpeed="5.65" duration="92.50" routeLength="398.54" waitingTime="11.50" waitingCount="1" stopTime="0.00" timeLoss="22.64" rerouteNo="0" devices="tripinfo_EW-bike.1 ssm_EW-bike.1" vType="bike" speedFactor="1.03" vaporized=""/>
    <tripinfo id="WE-bike.3" depart="37.50" departLane="2_1_1" departPos="1.70" departSpeed="0.00" departDelay="0.15" arrival="112.00" arrivalLane="1_4_1" arrivalPos="185.90" arrivalSpeed="6.13" duration="74.50" routeLength="398.54" waitingTime="0.00" waitingCount="0" stopTime="0.00" timeLoss="12.31" rerouteNo="0" devices="tripinfo_WE-bike.3 ssm_WE-bike.3" vType="bike" speedFactor="1.15" vaporized=""/>
    <tripinfo id="WS_3" depart="7.00" departLane="2_1_2" departPos="5.10" departSpeed="0.00" departDelay="0.00" arrival="112.50" arrivalLane="1_3_2" arrivalPos="185.90" arrivalSpeed="13.00" duration="105.50" routeLength="379.23" waitingTime="57.00" waitingCount="3" stopTime="0.00" timeLoss="75.22" rerouteNo="0" devices="tripinfo_WS_3 ssm_WS_3" vType="cars" speedFactor="1.01" vaporized=""/>
    <tripinfo id="EW_5" depart="76.00" departLane="4_1_3" departPos="5.10" departSpeed="0.00" departDelay="0.00" arrival="113.00" arrivalLane="1_2_3" arrivalPos="185.90" arrivalSpeed="13.00" duration="37.00" routeLength="395.14" waitingTime="0.00" waitingCount="0" stopTime="0.00" timeLoss="6.41" rerouteNo="0" devices="tripinfo_EW_5 ssm_EW_5" vType="cars" speedFactor="1.08" vaporized=""/>
    <tripinfo id="WE_6" depart="77.50" departLane="2_1_3" departPos="5.10" departSpeed="0.00" departDelay="0.50" arrival="113.00" arrivalLane="1_4_3" arrivalPos="185.90" arrivalSpeed="13.00" duration="35.50" routeLength="395.14" waitingTime="0.00" waitingCount="0" stopTime="0.00" timeLoss="5.00" rerouteNo="0" devices="tripinfo_WE_6 ssm_WE_6" vType="cars" speedFactor="1.11" vaporized=""/>
    <tripinfo id="WS-bike.0" depart="11.50" departLane="2_1_1" departPos="1.70" departSpeed="0.00" departDelay="0.20" arrival="116.50" arrivalLane="1_3_1" arrivalPos="185.90" arrivalSpeed="4.52" duration="105.00" routeLength="379.27" waitingTime="13.50" waitingCount="1" stopTime="0.00" timeLoss="23.20" rerouteNo="0" devices="tripinfo_WS-bike.0 ssm_WS-bike.0" vType="bike" speedFactor="0.84" vaporized=""/>
    <tripinfo id="WS_6" depart="14.00" departLane="2_1_2" departPos="5.10" departSpeed="0.00" departDelay="0.00" arrival="118.00" arrivalLane="1_3_2" arrivalPos="185.90" arrivalSpeed="13.00" duration="104.00" routeLength="379.23" waitingTime="47.00" waitingCount="8" stopTime="0.00" timeLoss="73.48" rerouteNo="0" devices="tripinfo_WS_6 ssm_WS_6" vType="cars" speedFactor="0.89" vaporized=""/>
    <tripinfo id="WE-bike.1" depart="7.50" departLane="2_1_3" departPos="1.70" departSpeed="0.00" departDelay="0.18" arrival="118.00" arrivalLane="1_4_1" arrivalPos="185.90" arrivalSpeed="4.71" duration="110.50" routeLength="398.54" waitingTime="16.50" waitingCount="1" stopTime="0.00" timeLoss="27.16" rerouteNo="0" devices="tripinfo_WE-bike.1 ssm_WE-bike.1" vType="bike" speedFactor="0.86" vaporized=""/>
    <tripinfo id="WE-bike.2" depart="14.00" departLane="2_1_4" departPos="1.70" departSpeed="0.00" departDelay="0.06" arrival="119.00" arrivalLane="1_4_2" arrivalPos="185.90" arrivalSpeed="4.82" duration="105.00" routeLength="398.54" waitingTime="9.50" waitingCount="2" stopTime="0.00" timeLoss="25.58" rerouteNo="0" devices="tripinfo_WE-bike.2 ssm_WE-bike.2" vType="bike" speedFactor="0.90" vaporized=""/>
    <tripinfo id="EN_10" depart="22.50" departLane="4_1_2" departPos="5.10" departSpeed="0.00" departDelay="2.50" arrival="123.00" arrivalLane="1_5_2" arrivalPos="185.90" arrivalSpeed="13.00" duration="100.50" routeLength="379.23" waitingTime="59.00" waitingCount="4" stopTime="0.00" timeLoss="70.14" rerouteNo="0" devices="tripinfo_EN_10 ssm_EN_10" vType="cars" speedFactor="0.96" vaporized=""/>
    <tripinfo id="NS_22" depart="66.00" departLane="5_1_3" departPos="5.10" departSpeed="0.00" departDelay="0.00" arrival="124.00" arrivalLane="1_3_2" arrivalPos="185.90" arrivalSpeed="13.00" duration="58.00" routeLength="395.14" waitingTime="20.50" waitingCount="1" stopTime="0.00" timeLoss="27.59" rerouteNo="0" devices="tripinfo_NS_22 ssm_NS_22" vType="cars" speedFactor="0.93" vaporized=""/>
    <tripinfo id="NS_26" depart="75.00" departLane="5_1_3" departPos="5.10" departSpeed="0.00" departDelay="0.00" arrival="125.50" arrivalLane="1_3_3" arrivalPos="185.90" arrivalSpeed="13.00" duration="50.50" routeLength="395.14" waitingTime="4.50" waitingCount="3" stopTime="0.00" timeLoss="19.93" rerouteNo="0" devices="tripinfo_NS_26 ssm_NS_26" vType="cars" speedFactor="1.04" vaporized=""/>
    <tripinfo id="EW-bike.5" depart="59.50" departLane="4_1_2" departPos="1.70" departSpeed="0.00" departDelay="0.38" arrival="125.50" arrivalLane="1_2_1" arrivalPos="185.90" arrivalSpeed="6.55" duration="66.00" routeLength="398.54" waitingTime="0.00" waitingCount="0" stopTime="0.00" timeLoss="5.51" rerouteNo="0" devices="tripinfo_EW-bike.5 ssm_EW-bike.5" vType="bike" speedFactor="1.19" vaporized=""/>
    <tripinfo id="SN_28" depart="81.00" departLane="3_1_3" departPos="5.10" departSpeed="0.00" departDelay="0.00" arrival="128.50" arrivalLane="1_5_3" arrivalPos="185.90" arrivalSpeed="13.00" duration="47.50" routeLength="395.14" waitingTime="9.50" waitingCount="1" stopTime="0.00" timeLoss="17.09" rerouteNo="0" devices="tripinfo_SN_28 ssm_SN_28" vType="cars" speedFactor="1.09" vaporized=""/>
    <tripinfo id="SN_30" depart="83.50" departLane="3_1_3" departPos="5.10" departSpeed="0.00" departDelay="0.50" arrival="130.50" arrivalLane="1_5_3" arrivalPos="185.90" arrivalSpeed="13.00" duration="47.00" routeLength="395.14" waitingTime="0.50" waitingCount="1" stopTime="0.00" timeLoss="16.13" rerouteNo="0" devices="tripinfo_SN_30 ssm_SN_30" vType="cars" speedFactor="1.00" vaporized=""/>
    <tripinfo id="SN_25" depart="74.00" departLane="3_1_3" departPos="5.10" departSpeed="0.00" departDelay="0.00" arrival="131.50" arrivalLane="1_5_2" arrivalPos="185.90" arrivalSpeed="13.00" duration="57.50" routeLength="395.14" waitingTime="19.00" waitingCount="1" stopTime="0.00" timeLoss="27.09" rerouteNo="0" devices="tripinfo_SN_25 ssm_SN_25" vType="cars" speedFactor="1.01" vaporized=""/>
    <tripinfo id="NS_32" depart="87.00" departLane="5_1_3" departPos="5.10" departSpeed="0.00" departDelay="0.00" arrival="131.50" arrivalLane="1_3_3" arrivalPos="185.90" arrivalSpeed="13.00" duration="44.50" routeLength="395.14" waitingTime="0.00" waitingCount="0" stopTime="0.00" timeLoss="13.95" rerouteNo="0" devices="tripinfo_NS_32 ssm_NS_32" vType="cars" speedFactor="0.98" vaporized=""/>
    <tripinfo id="SN_33" depart="90.00" departLane="3_1_3" departPos="5.10" departSpeed="0.00" departDelay="0.00" arrival="132.00" arrivalLane="1_5_3" arrivalPos="185.90" arrivalSpeed="13.00" duration="42.00" routeLength="395.14" waitingTime="0.00" waitingCount="0" stopTime="0.00" timeLoss="11.17" rerouteNo="0" devices="tripinfo_SN_33 ssm_SN_33" vType="cars" speedFactor="0.96" vaporized=""/>
    <tripinfo id="NS_29" depart="83.00" departLane="5_1_3" departPos="5.10" departSpeed="0.00" departDelay="0.00" arrival="133.00" arrivalLane="1_3_2" arrivalPos="185.90" arrivalSpeed="9.55" duration="50.00" routeLength="395.14" waitingTime="1.00" waitingCount="2" stopTime="0.00" timeLoss="19.37" rerouteNo="0" devices="tripinfo_NS_29 ssm_NS_29" vType="cars" speedFactor="1.05" vaporized=""/>
    <tripinfo id="EW-bike.4" depart="56.00" departLane="4_1_3" departPos="1.70" departSpeed="0.00" departDelay="0.10" arrival="133.00" arrivalLane="1_2_1" arrivalPos="185.90" arrivalSpeed="5.45" duration="77.00" routeLength="398.54" waitingTime="0.00" waitingCount="0" stopTime="0.00" timeLoss="6.77" rerouteNo="0" devices="tripinfo_EW-bike.4 ssm_EW-bike.4" vType="bike" speedFactor="1.02" vaporized=""/>
    <tripinfo id="SN_34" depart="97.00" departLane="3_1_3" departPos="5.10" departSpeed="0.00" departDelay="0.00" arrival="133.50" arrivalLane="1_5_2" arrivalPos="185.90" arrivalSpeed="13.00" duration="36.50" routeLength="395.14" waitingTime="0.00" waitingCount="0" stopTime="0.00" timeLoss="5.95" rerouteNo="0" devices="tripinfo_SN_34 ssm_SN_34" vType="cars" speedFactor="1.25" vaporized=""/>
    <tripinfo id="SN_31" depart="86.50" departLane="3_1_3" departPos="5.10" departSpeed="0.00" departDelay="2.50" arrival="135.50" arrivalLane="1_5_3" arrivalPos="185.90" arrivalSpeed="13.00" duration="49.00" routeLength="395.14" waitingTime="2.00" waitingCount="4" stopTime="0.00" timeLoss="18.32" rerouteNo="0" devices="tripinfo_SN_31 ssm_SN_31" vType="cars" speedFactor="0.88" vaporized=""/>
    <tripinfo id="WS-bike.1" depart="56.00" departLane="2_1_2" departPos="1.70" departSpeed="0.00" departDelay="0.37" arrival="136.00" arrivalLane="1_3_1" arrivalPos="185.90" arrivalSpeed="5.26" duration="80.00" routeLength="379.27" waitingTime="2.50" waitingCount="2" stopTime="0.00" timeLoss="11.57" rerouteNo="0" devices="tripinfo_WS-bike.1 ssm_WS-bike.1" vType="bike" speedFactor="1.00" vaporized=""/>
    <tripinfo id="EW-bike.3" depart="48.50" departLane="4_1_3" departPos="1.70" departSpeed="0.00" departDelay="0.21" arrival="138.50" arrivalLane="1_2_1" arrivalPos="185.90" arrivalSpeed="4.66" duration="90.00" routeLength="398.54" waitingTime="0.00" waitingCount="0" stopTime="0.00" timeLoss="5.08" rerouteNo="0" devices="tripinfo_EW-bike.3 ssm_EW-bike.3" vType="bike" speedFactor="0.85" vaporized=""/>
    <tripinfo id="NS_37" depart="105.00" departLane="5_1_3" departPos="5.10" departSpeed="0.00" departDelay="0.00" arrival="141.00" arrivalLane="1_3_3" arrivalPos="185.90" arrivalSpeed="13.00" duration="36.00" routeLength="395.14" waitingTime="0.00" waitingCount="0" stopTime="0.00" timeLoss="5.28" rerouteNo="0" devices="tripinfo_NS_37 ssm_NS_37" vType="cars" speedFactor="0.95" vaporized=""/>
    <tripinfo id="WS-bike.2" depart="58.00" departLane="2_1_1" departPos="1.70" departSpeed="0.00" departDelay="0.28" arrival="141.00" arrivalLane="1_3_1" arrivalPos="185.90" arrivalSpeed="4.87" duration="83.00" routeLength="379.27" waitingTime="0.00" waitingCount="0" stopTime="0.00" timeLoss="7.27" rerouteNo="0" devices="tripinfo_WS-bike.2 ssm_WS-bike.2" vType="bike" speedFactor="0.90" vaporized=""/>
    <tripinfo id="SN_38" depart="107.00" departLane="3_1_3" departPos="5.10" departSpeed="0.00" departDelay="0.00" arrival="144.00" arrivalLane="1_5_3" arrivalPos="185.90" arrivalSpeed="13.00" duration="37.00" routeLength="395.14" waitingTime="0.00" waitingCount="0" stopTime="0.00" timeLoss="6.39" rerouteNo="0" devices="tripinfo_SN_38 ssm_SN_38" vType="cars" speedFactor="0.98" vaporized=""/>
    <tripinfo id="SN_40" depart="111.00" departLane="3_1_3" departPos="5.10" departSpeed="0.00" departDelay="1.00" arrival="147.50" arrivalLane="1_5_2" arrivalPos="185.90" arrivalSpeed="13.00" duration="36.50" routeLength="395.14" waitingTime="0.00" waitingCount="0" stopTime="0.00" timeLoss="5.90" rerouteNo="0" devices="tripinfo_SN_40 ssm_SN_40" vType="cars" speedFactor="1.12" vaporized=""/>
    <tripinfo id="NS_41" depart="111.00" departLane="5_1_3" departPos="5.10" departSpeed="0.00" departDelay="0.00" arrival="150.00" arrivalLane="1_3_2" arrivalPos="185.90" arrivalSpeed="11.00" duration="39.00" routeLength="395.14" waitingTime="0.00" waitingCount="0" stopTime="0.00" timeLoss="8.52" rerouteNo="0" devices="tripinfo_NS_41 ssm_NS_41" vType="cars" speedFactor="1.05" vaporized=""/>
    <tripinfo id="SN-bike.2" depart="40.50" departLane="3_1_1" departPos="1.70" departSpeed="0.00" departDelay="0.00" arrival="152.50" arrivalLane="1_5_1" arrivalPos="185.90" arrivalSpeed="5.95" duration="112.00" routeLength="398.54" waitingTime="39.50" waitingCount="1" stopTime="0.00" timeLoss="47.65" rerouteNo="0" devices="tripinfo_SN-bike.2 ssm_SN-bike.2" vType="bike" speedFactor="1.12" vaporized=""/>
    <tripinfo id="NW_21" depart="53.00" departLane="5_1_2" departPos="5.10" departSpeed="0.00" departDelay="0.00" arrival="160.50" arrivalLane="1_2_2" arrivalPos="185.90" arrivalSpeed="13.00" duration="107.50" routeLength="379.23" waitingTime="65.00" waitingCount="4" stopTime="0.00" timeLoss="76.77" rerouteNo="0" devices="tripinfo_NW_21 ssm_NW_21" vType="cars" speedFactor="0.79" vaporized=""/>
    <tripinfo id="EW_6" depart="92.00" departLane="4_1_3" departPos="5.10" departSpeed="0.00" departDelay="0.00" arrival="162.00" arrivalLane="1_2_2" arrivalPos="185.90" arrivalSpeed="13.00" duration="70.00" routeLength="395.14" waitingTime="30.50" waitingCount="1" stopTime="0.00" timeLoss="39.59" rerouteNo="0" devices="tripinfo_EW_6 ssm_EW_6" vType="cars" speedFactor="1.14" vaporized=""/>
    <tripinfo id="EW_7" depart="111.00" departLane="4_1_3" departPos="5.10" departSpeed="0.00" departDelay="0.00" arrival="162.00" arrivalLane="1_2_3" arrivalPos="185.90" arrivalSpeed="13.00" duration="51.00" routeLength="395.14" waitingTime="12.00" waitingCount="1" stopTime="0.00" timeLoss="20.59" rerouteNo="0" devices="tripinfo_EW_7 ssm_EW_7" vType="cars" speedFactor="0.99" vaporized=""/>
    <tripinfo id="WE_9" depart="106.00" departLane="2_1_3" departPos="5.10" departSpeed="0.00" departDelay="0.00" arrival="163.50" arrivalLane="1_4_3" arrivalPos="185.90" arrivalSpeed="13.00" duration="57.50" routeLength="395.14" waitingTime="10.50" waitingCount="5" stopTime="0.00" timeLoss="26.93" rerouteNo="0" devices="tripinfo_WE_9 ssm_WE_9" vType="cars" speedFactor="1.12" vaporized=""/>
    <tripinfo id="SE_27" depart="78.00" departLane="3_1_2" departPos="5.10" departSpeed="0.00" departDelay="0.00" arrival="164.00" arrivalLane="1_4_2" arrivalPos="185.90" arrivalSpeed="13.00" duration="86.00" routeLength="379.23" waitingTime="37.50" waitingCount="3" stopTime="0.00" timeLoss="55.90" rerouteNo="0" devices="tripinfo_SE_27 ssm_SE_27" vType="cars" speedFactor="1.13" vaporized=""/>
    <tripinfo id="EW_8" depart="123.00" departLane="4_1_3" departPos="5.10" departSpeed="0.00" departDelay="0.00" arrival="164.00" arrivalLane="1_2_2" arrivalPos="185.90" arrivalSpeed="13.00" duration="41.00" routeLength="395.14" waitingTime="0.00" waitingCount="0" stopTime="0.00" timeLoss="10.13" rerouteNo="0" devices="tripinfo_EW_8 ssm_EW_8" vType="cars" speedFactor="1.00" vaporized=""/>
    <tripinfo id="WE_7" depart="89.00" departLane="2_1_3" departPos="5.10" departSpeed="0.00" departDelay="0.00" arrival="165.50" arrivalLane="1_4_2" arrivalPos="185.90" arrivalSpeed="13.00" duration="76.50" routeLength="395.14" waitingTime="31.00" waitingCount="1" stopTime="0.00" timeLoss="45.72" rerouteNo="0" devices="tripinfo_WE_7 ssm_WE_7" vType="cars" speedFactor="0.83" vaporized=""/>
    <tripinfo id="SN-bike.3" depart="100.00" departLane="3_1_2" departPos="1.70" departSpeed="0.00" departDelay="0.47" arrival="167.00" arrivalLane="1_5_1" arrivalPos="185.90" arrivalSpeed="6.35" duration="67.00" routeLength="398.54" waitingTime="0.00" waitingCount="0" stopTime="0.00" timeLoss="4.25" rerouteNo="0" devices="tripinfo_SN-bike.3 ssm_SN-bike.3" vType="bike" speedFactor="1.15" vaporized=""/>