<?xml version="1.0" encoding="UTF-8"?>

<!-- generated on 2025-03-12 13:20:21 by Eclipse SUMO GUI Version 1.20.0
<configuration xmlns:xsi="http://www.w3.org/2001/XMLSchema-instance" xsi:noNamespaceSchemaLocation="http://sumo.dlr.de/xsd/sumoConfiguration.xsd">

    <input>
        <net-file value="/home/naderian/Desktop/Shakiba/MMSVCC/environment/network_model/single_intersection_pedestrian_X.net.xml"/>
        <route-files value="/home/naderian/Desktop/Shakiba/MMSVCC/environment/network_model/single_intersection.rou.xml"/>
        <additional-files value="/home/naderian/Desktop/Shakiba/MMSVCC/environment/network_model/single_intersection.add.xml"/>
    </input>

    <output>
        <queue-output value="/home/naderian/Desktop/Shakiba/MMSVCC/environment/simulation_data/single_intersection/queues_multi_scale_symmetric_pene_50.xml"/>
        <tripinfo-output value="/home/naderian/Desktop/Shakiba/MMSVCC/environment/simulation_data/single_intersection/tripinfo_multi_scale_symmetric_pene_50.xml"/>
    </output>

    <time>
        <begin value="0"/>
        <step-length value="0.5"/>
    </time>

    <processing>
        <waiting-time-memory value="1000"/>
    </processing>

    <report>
        <verbose value="true"/>
        <no-step-log value="true"/>
    </report>

    <traci_server>
        <remote-port value="49325"/>
    </traci_server>

    <gui_only>
        <start value="true"/>
    </gui_only>

</configuration>
-->

<tripinfos xmlns:xsi="http://www.w3.org/2001/XMLSchema-instance" xsi:noNamespaceSchemaLocation="http://sumo.dlr.de/xsd/tripinfo_file.xsd">
    <tripinfo id="SN_0" depart="0.00" departLane="3_1_2" departPos="5.10" departSpeed="0.00" departDelay="0.00" arrival="35.50" arrivalLane="1_5_1" arrivalPos="186.40" arrivalSpeed="11.82" duration="35.50" routeLength="395.15" waitingTime="0.00" waitingCount="0" stopTime="0.00" timeLoss="4.99" rerouteNo="0" devices="tripinfo_SN_0" vType="cars" speedFactor="0.97" vaporized=""/>
    <tripinfo id="NS_1" depart="1.00" departLane="5_1_2" departPos="5.10" departSpeed="0.00" departDelay="0.00" arrival="38.00" arrivalLane="1_3_1" arrivalPos="186.40" arrivalSpeed="12.65" duration="37.00" routeLength="395.15" waitingTime="0.00" waitingCount="0" stopTime="0.00" timeLoss="6.30" rerouteNo="0" devices="tripinfo_NS_1" vType="cars" speedFactor="1.11" vaporized=""/>
    <tripinfo id="SN_2" depart="5.00" departLane="3_1_2" departPos="5.10" departSpeed="0.00" departDelay="0.00" arrival="40.00" arrivalLane="1_5_1" arrivalPos="186.40" arrivalSpeed="11.68" duration="35.00" routeLength="395.15" waitingTime="0.00" waitingCount="0" stopTime="0.00" timeLoss="4.48" rerouteNo="0" devices="tripinfo_SN_2" vType="cars" speedFactor="0.86" vaporized=""/>
    <tripinfo id="WE_0" depart="1.00" departLane="2_1_2" departPos="5.10" departSpeed="0.00" departDelay="0.00" arrival="52.00" arrivalLane="1_4_1" arrivalPos="186.40" arrivalSpeed="13.00" duration="51.00" routeLength="395.15" waitingTime="11.50" waitingCount="1" stopTime="0.00" timeLoss="20.55" rerouteNo="0" devices="tripinfo_WE_0" vType="cars" speedFactor="0.91" vaporized=""/>
    <tripinfo id="WE_1" depart="10.00" departLane="2_1_2" departPos="5.10" departSpeed="0.00" departDelay="0.00" arrival="54.00" arrivalLane="1_4_2" arrivalPos="186.40" arrivalSpeed="12.38" duration="44.00" routeLength="395.15" waitingTime="4.50" waitingCount="1" stopTime="0.00" timeLoss="13.17" rerouteNo="0" devices="tripinfo_WE_1" vType="cars" speedFactor="1.06" vaporized=""/>
    <tripinfo id="WS_3" depart="7.00" departLane="2_1_1" departPos="5.10" departSpeed="0.00" departDelay="0.00" arrival="55.00" arrivalLane="1_3_1" arrivalPos="186.40" arrivalSpeed="12.79" duration="48.00" routeLength="379.43" waitingTime="5.00" waitingCount="1" stopTime="0.00" timeLoss="17.60" rerouteNo="0" devices="tripinfo_WS_3" vType="cars" speedFactor="0.95" vaporized=""/>
    <tripinfo id="WE_2" depart="12.50" departLane="2_1_2" departPos="5.10" departSpeed="0.00" departDelay="0.50" arrival="55.50" arrivalLane="1_4_2" arrivalPos="186.40" arrivalSpeed="13.00" duration="43.00" routeLength="395.15" waitingTime="0.00" waitingCount="0" stopTime="0.00" timeLoss="12.16" rerouteNo="0" devices="tripinfo_WE_2" vType="cars" speedFactor="0.94" vaporized=""/>
    <tripinfo id="EW_0" depart="19.00" departLane="4_1_2" departPos="5.10" departSpeed="0.00" departDelay="0.00" arrival="55.50" arrivalLane="1_2_1" arrivalPos="186.40" arrivalSpeed="13.00" duration="36.50" routeLength="395.15" waitingTime="0.00" waitingCount="0" stopTime="0.00" timeLoss="5.69" rerouteNo="0" devices="tripinfo_EW_0" vType="cars" speedFactor="1.05" vaporized=""/>
    <tripinfo id="EW_1" depart="22.00" departLane="4_1_2" departPos="5.10" departSpeed="0.00" departDelay="1.00" arrival="58.50" arrivalLane="1_2_1" arrivalPos="186.40" arrivalSpeed="13.00" duration="36.50" routeLength="395.15" waitingTime="0.00" waitingCount="0" stopTime="0.00" timeLoss="6.06" rerouteNo="0" devices="tripinfo_EW_1" vType="cars" speedFactor="1.01" vaporized=""/>
    <tripinfo id="ES_4" depart="14.00" departLane="4_1_3" departPos="5.10" departSpeed="0.00" departDelay="0.00" arrival="71.50" arrivalLane="1_3_2" arrivalPos="186.40" arrivalSpeed="12.42" duration="57.50" routeLength="392.22" waitingTime="16.50" waitingCount="1" stopTime="0.00" timeLoss="26.66" rerouteNo="0" devices="tripinfo_ES_4" vType="cars" speedFactor="0.97" vaporized=""/>
    <tripinfo id="ES_6" depart="31.00" departLane="4_1_3" departPos="5.10" departSpeed="0.00" departDelay="0.00" arrival="74.00" arrivalLane="1_3_2" arrivalPos="186.40" arrivalSpeed="12.25" duration="43.00" routeLength="392.22" waitingTime="0.00" waitingCount="0" stopTime="0.00" timeLoss="12.16" rerouteNo="0" devices="tripinfo_ES_6" vType="cars" speedFactor="1.07" vaporized=""/>
    <tripinfo id="NS_5" depart="22.00" departLane="5_1_2" departPos="5.10" departSpeed="0.00" departDelay="0.00" arrival="81.00" arrivalLane="1_3_1" arrivalPos="186.40" arrivalSpeed="13.00" duration="59.00" routeLength="395.15" waitingTime="18.50" waitingCount="1" stopTime="0.00" timeLoss="28.55" rerouteNo="0" devices="tripinfo_NS_5" vType="cars" speedFactor="1.01" vaporized=""/>
    <tripinfo id="NW_7" depart="37.00" departLane="5_1_1" departPos="5.10" departSpeed="0.00" departDelay="0.00" arrival="81.50" arrivalLane="1_2_1" arrivalPos="186.40" arrivalSpeed="13.00" duration="44.50" routeLength="379.43" waitingTime="0.50" waitingCount="1" stopTime="0.00" timeLoss="14.81" rerouteNo="0" devices="tripinfo_NW_7" vType="cars" speedFactor="1.13" vaporized=""/>
    <tripinfo id="SN_10" depart="48.00" departLane="3_1_2" departPos="5.10" departSpeed="0.00" departDelay="0.00" arrival="83.50" arrivalLane="1_5_1" arrivalPos="186.40" arrivalSpeed="12.39" duration="35.50" routeLength="395.15" waitingTime="0.00" waitingCount="0" stopTime="0.00" timeLoss="5.04" rerouteNo="0" devices="tripinfo_SN_10" vType="cars" speedFactor="1.02" vaporized=""/>
    <tripinfo id="NW_9" depart="41.00" departLane="5_1_1" departPos="5.10" departSpeed="0.00" departDelay="0.00" arrival="90.50" arrivalLane="1_2_1" arrivalPos="186.40" arrivalSpeed="8.96" duration="49.50" routeLength="379.43" waitingTime="0.00" waitingCount="0" stopTime="0.00" timeLoss="19.06" rerouteNo="0" devices="tripinfo_NW_9" vType="cars" speedFactor="0.91" vaporized=""/>
    <tripinfo id="WE_3" depart="43.00" departLane="2_1_2" departPos="5.10" departSpeed="0.00" departDelay="0.00" arrival="93.00" arrivalLane="1_4_1" arrivalPos="186.40" arrivalSpeed="13.00" duration="50.00" routeLength="395.15" waitingTime="5.50" waitingCount="1" stopTime="0.00" timeLoss="19.55" rerouteNo="0" devices="tripinfo_WE_3" vType="cars" speedFactor="1.05" vaporized=""/>
    <tripinfo id="EW_2" depart="46.00" departLane="4_1_2" departPos="5.10" departSpeed="0.00" departDelay="0.00" arrival="96.00" arrivalLane="1_2_1" arrivalPos="186.40" arrivalSpeed="11.90" duration="50.00" routeLength="395.15" waitingTime="8.00" waitingCount="1" stopTime="0.00" timeLoss="19.35" rerouteNo="0" devices="tripinfo_EW_2" vType="cars" speedFactor="1.05" vaporized=""/>
    <tripinfo id="WE_4" depart="67.00" departLane="2_1_2" departPos="5.10" departSpeed="0.00" departDelay="0.00" arrival="102.00" arrivalLane="1_4_1" arrivalPos="186.40" arrivalSpeed="13.00" duration="35.00" routeLength="395.15" waitingTime="0.00" waitingCount="0" stopTime="0.00" timeLoss="4.25" rerouteNo="0" devices="tripinfo_WE_4" vType="cars" speedFactor="0.96" vaporized=""/>
    <tripinfo id="EW_3" depart="68.00" departLane="4_1_2" departPos="5.10" departSpeed="0.00" departDelay="0.00" arrival="104.00" arrivalLane="1_2_1" arrivalPos="186.40" arrivalSpeed="13.00" duration="36.00" routeLength="395.15" waitingTime="0.00" waitingCount="0" stopTime="0.00" timeLoss="5.21" rerouteNo="0" devices="tripinfo_EW_3" vType="cars" speedFactor="0.98" vaporized=""/>
    <tripinfo id="WE_5" depart="86.00" departLane="2_1_2" departPos="5.10" departSpeed="0.00" departDelay="0.00" arrival="122.00" arrivalLane="1_4_1" arrivalPos="186.40" arrivalSpeed="13.00" duration="36.00" routeLength="395.15" waitingTime="0.00" waitingCount="0" stopTime="0.00" timeLoss="5.39" rerouteNo="0" devices="tripinfo_WE_5" vType="cars" speedFactor="0.99" vaporized=""/>
    <tripinfo id="WE_6" depart="88.50" departLane="2_1_2" departPos="5.10" departSpeed="0.00" departDelay="1.50" arrival="124.00" arrivalLane="1_4_1" arrivalPos="186.40" arrivalSpeed="13.00" duration="35.50" routeLength="395.15" waitingTime="0.00" waitingCount="0" stopTime="0.00" timeLoss="5.06" rerouteNo="0" devices="tripinfo_WE_6" vType="cars" speedFactor="0.93" vaporized=""/>
    <tripinfo id="NS_12" depart="80.00" departLane="5_1_2" departPos="5.10" departSpeed="0.00" departDelay="0.00" arrival="137.50" arrivalLane="1_3_1" arrivalPos="186.40" arrivalSpeed="12.12" duration="57.50" routeLength="395.15" waitingTime="16.50" waitingCount="1" stopTime="0.00" timeLoss="27.05" rerouteNo="0" devices="tripinfo_NS_12" vType="cars" speedFactor="1.07" vaporized=""/>
    <tripinfo id="SN_14" depart="90.00" departLane="3_1_2" departPos="5.10" departSpeed="0.00" departDelay="0.00" arrival="137.50" arrivalLane="1_5_1" arrivalPos="186.40" arrivalSpeed="13.00" duration="47.50" routeLength="395.15" waitingTime="8.50" waitingCount="1" stopTime="0.00" timeLoss="17.05" rerouteNo="0" devices="tripinfo_SN_14" vType="cars" speedFactor="1.05" vaporized=""/>
    <tripinfo id="NS_15" depart="92.00" departLane="5_1_2" departPos="5.10" departSpeed="0.00" departDelay="0.00" arrival="138.00" arrivalLane="1_3_2" arrivalPos="186.40" arrivalSpeed="11.66" duration="46.00" routeLength="395.15" waitingTime="4.50" waitingCount="1" stopTime="0.00" timeLoss="15.32" rerouteNo="0" devices="tripinfo_NS_15" vType="cars" speedFactor="1.01" vaporized=""/>
    <tripinfo id="NS_18" depart="99.00" departLane="5_1_2" departPos="5.10" departSpeed="0.00" departDelay="0.00" arrival="139.00" arrivalLane="1_3_1" arrivalPos="186.40" arrivalSpeed="13.00" duration="40.00" routeLength="395.15" waitingTime="0.00" waitingCount="0" stopTime="0.00" timeLoss="9.53" rerouteNo="0" devices="tripinfo_NS_18" vType="cars" speedFactor="0.84" vaporized=""/>
    <tripinfo id="SN_11" depart="70.00" departLane="3_1_2" departPos="5.10" departSpeed="0.00" departDelay="0.00" arrival="147.00" arrivalLane="1_5_1" arrivalPos="186.40" arrivalSpeed="13.00" duration="77.00" routeLength="395.15" waitingTime="37.50" waitingCount="1" stopTime="0.00" timeLoss="46.55" rerouteNo="0" devices="tripinfo_SN_11" vType="cars" speedFactor="1.02" vaporized=""/>
    <tripinfo id="SW_8" depart="40.00" departLane="3_1_3" departPos="5.10" departSpeed="0.00" departDelay="0.00" arrival="148.00" arrivalLane="1_2_2" arrivalPos="186.40" arrivalSpeed="13.00" duration="108.00" routeLength="392.22" waitingTime="63.00" waitingCount="1" stopTime="0.00" timeLoss="76.53" rerouteNo="0" devices="tripinfo_SW_8" vType="cars" speedFactor="0.85" vaporized=""/>
    <tripinfo id="SW_17" depart="93.00" departLane="3_1_3" departPos="5.10" departSpeed="0.00" departDelay="0.00" arrival="150.00" arrivalLane="1_2_2" arrivalPos="186.40" arrivalSpeed="13.00" duration="57.00" routeLength="392.22" waitingTime="10.00" waitingCount="3" stopTime="0.00" timeLoss="25.41" rerouteNo="0" devices="tripinfo_SW_17" vType="cars" speedFactor="0.83" vaporized=""/>
    <tripinfo id="SN_16" depart="93.00" departLane="3_1_2" departPos="5.10" departSpeed="0.00" departDelay="0.00" arrival="150.50" arrivalLane="1_5_1" arrivalPos="186.40" arrivalSpeed="12.98" duration="57.50" routeLength="395.15" waitingTime="10.00" waitingCount="2" stopTime="0.00" timeLoss="26.96" rerouteNo="0" devices="tripinfo_SN_16" vType="cars" speedFactor="0.91" vaporized=""/>
    <tripinfo id="SN_20" depart="109.00" departLane="3_1_2" departPos="5.10" departSpeed="0.00" departDelay="0.00" arrival="152.00" arrivalLane="1_5_2" arrivalPos="186.40" arrivalSpeed="12.91" duration="43.00" routeLength="395.15" waitingTime="0.00" waitingCount="0" stopTime="0.00" timeLoss="12.58" rerouteNo="0" devices="tripinfo_SN_20" vType="cars" speedFactor="0.89" vaporized=""/>
    <tripinfo id="SE_19" depart="100.00" departLane="3_1_1" departPos="5.10" departSpeed="0.00" departDelay="0.00" arrival="158.00" arrivalLane="1_4_1" arrivalPos="186.40" arrivalSpeed="12.69" duration="58.00" routeLength="379.42" waitingTime="12.50" waitingCount="2" stopTime="0.00" timeLoss="27.86" rerouteNo="0" devices="tripinfo_SE_19" vType="cars" speedFactor="0.92" vaporized=""/>
    <tripinfo id="WE_7" depart="125.00" departLane="2_1_2" departPos="5.10" departSpeed="0.00" departDelay="0.00" arrival="162.00" arrivalLane="1_4_1" arrivalPos="186.40" arrivalSpeed="12.05" duration="37.00" routeLength="395.15" waitingTime="0.00" waitingCount="0" stopTime="0.00" timeLoss="6.58" rerouteNo="0" devices="tripinfo_WE_7" vType="cars" speedFactor="1.02" vaporized=""/>
    <tripinfo id="EW_5" depart="126.00" departLane="4_1_2" departPos="5.10" departSpeed="0.00" departDelay="1.00" arrival="163.00" arrivalLane="1_2_1" arrivalPos="186.40" arrivalSpeed="13.00" duration="37.00" routeLength="395.15" waitingTime="0.00" waitingCount="0" stopTime="0.00" timeLoss="6.45" rerouteNo="0" devices="tripinfo_EW_5" vType="cars" speedFactor="1.09" vaporized=""/>
    <tripinfo id="EW_4" depart="123.00" departLane="4_1_2" departPos="5.10" departSpeed="0.00" departDelay="0.00" arrival="164.50" arrivalLane="1_2_2" arrivalPos="186.40" arrivalSpeed="13.00" duration="41.50" routeLength="395.15" waitingTime="0.00" waitingCount="0" stopTime="0.00" timeLoss="11.05" rerouteNo="0" devices="tripinfo_EW_4" vType="cars" speedFactor="1.11" vaporized=""/>
    <tripinfo id="WE_8" depart="134.00" departLane="2_1_2" departPos="5.10" departSpeed="0.00" departDelay="0.00" arrival="170.00" arrivalLane="1_4_2" arrivalPos="186.40" arrivalSpeed="12.35" duration="36.00" routeLength="395.15" waitingTime="0.00" waitingCount="0" stopTime="0.00" timeLoss="5.59" rerouteNo="0" devices="tripinfo_WE_8" vType="cars" speedFactor="1.01" vaporized=""/>
    <tripinfo id="EN_21" depart="111.00" departLane="4_1_1" departPos="5.10" departSpeed="0.00" departDelay="0.00" arrival="171.00" arrivalLane="1_5_1" arrivalPos="186.40" arrivalSpeed="13.00" duration="60.00" routeLength="379.42" waitingTime="16.00" waitingCount="2" stopTime="0.00" timeLoss="29.73" rerouteNo="0" devices="tripinfo_EN_21" vType="cars" speedFactor="1.00" vaporized=""/>
    <tripinfo id="EW_6" depart="137.00" departLane="4_1_2" departPos="5.10" departSpeed="0.00" departDelay="0.00" arrival="173.00" arrivalLane="1_2_2" arrivalPos="186.40" arrivalSpeed="13.00" duration="36.00" routeLength="395.15" waitingTime="0.00" waitingCount="0" stopTime="0.00" timeLoss="5.25" rerouteNo="0" devices="tripinfo_EW_6" vType="cars" speedFactor="1.08" vaporized=""/>
    <personinfo id="person_EW_n.0" depart="20.64" type="DEFAULT_PEDTYPE" speedFactor="1.09" duration="154.00" waitingTime="0.00" timeLoss="8.06" traveltime="154.00">
        <walk depart="21.00" departPos="100.00" arrival="175.00" arrivalPos="93.20" duration="154.00" routeLength="221.32" timeLoss="8.06" maxSpeed="1.52"/>
    </personinfo>
    <personinfo id="person_WE_s.0" depart="1.92" type="DEFAULT_PEDTYPE" speedFactor="0.98" duration="175.00" waitingTime="0.00" timeLoss="11.71" traveltime="175.00">
        <walk depart="2.00" departPos="100.00" arrival="177.00" arrivalPos="93.20" duration="175.00" routeLength="221.17" timeLoss="11.71" maxSpeed="1.35"/>
    </personinfo>
    <tripinfo id="EN_29" depart="137.00" departLane="4_1_1" departPos="5.10" departSpeed="0.00" departDelay="0.00" arrival="181.00" arrivalLane="1_5_1" arrivalPos="186.40" arrivalSpeed="13.00" duration="44.00" routeLength="379.42" waitingTime="6.00" waitingCount="1" stopTime="0.00" timeLoss="13.85" rerouteNo="0" devices="tripinfo_EN_29" vType="cars" speedFactor="1.15" vaporized=""/>
    <tripinfo id="WS_23" depart="125.00" departLane="2_1_1" departPos="5.10" departSpeed="0.00" departDelay="0.00" arrival="183.00" arrivalLane="1_3_1" arrivalPos="186.40" arrivalSpeed="12.73" duration="58.00" routeLength="379.43" waitingTime="18.50" waitingCount="1" stopTime="0.00" timeLoss="28.09" rerouteNo="0" devices="tripinfo_WS_23" vType="cars" speedFactor="1.02" vaporized=""/>
    <tripinfo id="SN_27" depart="130.00" departLane="3_1_2" departPos="5.10" departSpeed="0.00" departDelay="0.00" arrival="191.50" arrivalLane="1_5_2" arrivalPos="186.40" arrivalSpeed="13.00" duration="61.50" routeLength="395.15" waitingTime="17.00" waitingCount="1" stopTime="0.00" timeLoss="31.05" rerouteNo="0" devices="tripinfo_SN_27" vType="cars" speedFactor="1.11" vaporized=""/>
    <tripinfo id="SN_25" depart="126.00" departLane="3_1_2" departPos="5.10" departSpeed="0.00" departDelay="0.00" arrival="194.00" arrivalLane="1_5_1" arrivalPos="186.40" arrivalSpeed="13.00" duration="68.00" routeLength="395.15" waitingTime="29.00" waitingCount="1" stopTime="0.00" timeLoss="37.55" rerouteNo="0" devices="tripinfo_SN_25" vType="cars" speedFactor="0.91" vaporized=""/>
    <tripinfo id="NS_24" depart="125.00" departLane="5_1_2" departPos="5.10" departSpeed="0.00" departDelay="0.00" arrival="194.50" arrivalLane="1_3_1" arrivalPos="186.40" arrivalSpeed="12.50" duration="69.50" routeLength="395.15" waitingTime="25.50" waitingCount="1" stopTime="0.00" timeLoss="39.11" rerouteNo="0" devices="tripinfo_NS_24" vType="cars" speedFactor="1.22" vaporized=""/>
    <tripinfo id="NS_26" depart="130.00" departLane="5_1_2" departPos="5.10" departSpeed="0.00" departDelay="0.00" arrival="194.50" arrivalLane="1_3_2" arrivalPos="186.40" arrivalSpeed="11.83" duration="64.50" routeLength="395.15" waitingTime="22.50" waitingCount="1" stopTime="0.00" timeLoss="34.01" rerouteNo="0" devices="tripinfo_NS_26" vType="cars" speedFactor="1.04" vaporized=""/>
    <tripinfo id="SN_35" depart="156.00" departLane="3_1_2" departPos="5.10" departSpeed="0.00" departDelay="0.00" arrival="194.50" arrivalLane="1_5_1" arrivalPos="186.40" arrivalSpeed="12.71" duration="38.50" routeLength="395.15" waitingTime="0.00" waitingCount="0" stopTime="0.00" timeLoss="7.88" rerouteNo="0" devices="tripinfo_SN_35" vType="cars" speedFactor="1.06" vaporized=""/>
    <tripinfo id="NS_30" depart="138.00" departLane="5_1_2" departPos="5.10" departSpeed="0.00" departDelay="0.00" arrival="196.00" arrivalLane="1_3_1" arrivalPos="186.40" arrivalSpeed="13.00" duration="58.00" routeLength="395.15" waitingTime="9.00" waitingCount="4" stopTime="0.00" timeLoss="27.60" rerouteNo="0" devices="tripinfo_NS_30" vType="cars" speedFactor="1.01" vaporized=""/>
    <tripinfo id="NS_31" depart="141.00" departLane="5_1_2" departPos="5.10" departSpeed="0.00" departDelay="2.00" arrival="196.00" arrivalLane="1_3_2" arrivalPos="186.40" arrivalSpeed="13.00" duration="55.00" routeLength="395.15" waitingTime="5.50" waitingCount="3" stopTime="0.00" timeLoss="24.47" rerouteNo="0" devices="tripinfo_NS_31" vType="cars" speedFactor="1.01" vaporized=""/>
    <tripinfo id="NS_32" depart="147.00" departLane="5_1_2" departPos="5.10" departSpeed="0.00" departDelay="0.00" arrival="199.00" arrivalLane="1_3_2" arrivalPos="186.40" arrivalSpeed="11.95" duration="52.00" routeLength="395.15" waitingTime="3.50" waitingCount="1" stopTime="0.00" timeLoss="21.60" rerouteNo="0" devices="tripinfo_NS_32" vType="cars" speedFactor="1.00" vaporized=""/>
    <personinfo id="person_NS_w.1" depart="10.87" type="DEFAULT_PEDTYPE" speedFactor="1.12" duration="189.50" waitingTime="0.00" timeLoss="47.18" traveltime="189.50">
        <walk depart="11.00" departPos="100.00" arrival="200.50" arrivalPos="93.20" duration="189.50" routeLength="221.25" timeLoss="47.18" maxSpeed="1.55"/>
    </personinfo>
    <tripinfo id="NS_34" depart="152.00" departLane="5_1_2" departPos="5.10" departSpeed="0.00" departDelay="0.00" arrival="201.00" arrivalLane="1_3_2" arrivalPos="186.40" arrivalSpeed="12.74" duration="49.00" routeLength="395.15" waitingTime="1.00" waitingCount="1" stopTime="0.00" timeLoss="18.42" rerouteNo="0" devices="tripinfo_NS_34" vType="cars" speedFactor="0.85" vaporized=""/>
    <tripinfo id="NS_38" depart="163.00" departLane="5_1_2" departPos="5.10" departSpeed="0.00" departDelay="0.00" arrival="202.50" arrivalLane="1_3_2" arrivalPos="186.40" arrivalSpeed="13.00" duration="39.50" routeLength="395.15" waitingTime="0.00" waitingCount="0" stopTime="0.00" timeLoss="8.92" rerouteNo="0" devices="tripinfo_NS_38" vType="cars" speedFactor="0.93" vaporized=""/>
    <personinfo id="person_NE_diag.0" depart="4.87" type="DEFAULT_PEDTYPE" speedFactor="0.99" duration="203.50" waitingTime="0.00" timeLoss="40.63" traveltime="203.50">
        <walk depart="5.00" departPos="100.00" arrival="208.50" arrivalPos="93.20" duration="203.50" routeLength="223.30" timeLoss="40.63" maxSpeed="1.37"/>
    </personinfo>
    <tripinfo id="NW_33" depart="147.00" departLane="5_1_1" departPos="5.10" departSpeed="0.00" departDelay="0.00" arrival="210.00" arrivalLane="1_2_1" arrivalPos="186.40" arrivalSpeed="13.00" duration="63.00" routeLength="379.43" waitingTime="13.50" waitingCount="3" stopTime="0.00" timeLoss="32.20" rerouteNo="0" devices="tripinfo_NW_33" vType="cars" speedFactor="0.83" vaporized=""/>
    <personinfo id="person_NS_w.0" depart="3.48" type="DEFAULT_PEDTYPE" speedFactor="1.00" duration="207.00" waitingTime="0.00" timeLoss="47.22" traveltime="207.00">
        <walk depart="3.50" departPos="100.00" arrival="210.50" arrivalPos="93.20" duration="207.00" routeLength="221.25" timeLoss="47.22" maxSpeed="1.38"/>
    </personinfo>
    <personinfo id="person_NS_w.2" depart="10.90" type="DEFAULT_PEDTYPE" speedFactor="1.00" duration="199.50" waitingTime="0.00" timeLoss="39.87" traveltime="199.50">
        <walk depart="11.00" departPos="100.00" arrival="210.50" arrivalPos="93.20" duration="199.50" routeLength="221.25" timeLoss="39.87" maxSpeed="1.39"/>
    </personinfo>
    <personinfo id="person_NS_w.3" depart="12.93" type="DEFAULT_PEDTYPE" speedFactor="0.99" duration="199.00" waitingTime="0.00" timeLoss="37.61" traveltime="199.00">
        <walk depart="13.00" departPos="100.00" arrival="212.00" arrivalPos="93.20" duration="199.00" routeLength="221.25" timeLoss="37.61" maxSpeed="1.37"/>
    </personinfo>
    <personinfo id="person_SN_e.0" depart="16.32" type="DEFAULT_PEDTYPE" speedFactor="0.96" duration="198.00" waitingTime="0.00" timeLoss="32.33" traveltime="198.00">
        <walk depart="16.50" departPos="100.00" arrival="214.50" arrivalPos="93.20" duration="198.00" routeLength="221.24" timeLoss="32.33" maxSpeed="1.34"/>
    </personinfo>
    <personinfo id="person_NS_w.4" depart="22.10" type="DEFAULT_PEDTYPE" speedFactor="0.96" duration="192.50" waitingTime="0.00" timeLoss="26.51" traveltime="192.50">
        <walk depart="22.50" departPos="100.00" arrival="215.00" arrivalPos="93.20" duration="192.50" routeLength="221.25" timeLoss="26.51" maxSpeed="1.33"/>
    </personinfo>
    <personinfo id="person_ES_diag.0" depart="51.35" type="DEFAULT_PEDTYPE" speedFactor="1.15" duration="167.00" waitingTime="0.00" timeLoss="25.49" traveltime="167.00">
        <walk depart="51.50" departPos="100.00" arrival="218.50" arrivalPos="93.20" duration="167.00" routeLength="226.69" timeLoss="25.49" maxSpeed="1.60"/>
    </personinfo>
    <personinfo id="person_WE_s.2" depart="64.24" type="DEFAULT_PEDTYPE" speedFactor="1.20" duration="154.50" waitingTime="0.00" timeLoss="21.85" traveltime="154.50">
        <walk depart="64.50" departPos="100.00" arrival="219.00" arrivalPos="93.20" duration="154.50" routeLength="221.17" timeLoss="21.85" maxSpeed="1.67"/>
    </personinfo>
    <tripinfo id="ES_22" depart="119.00" departLane="4_1_3" departPos="5.10" departSpeed="0.00" departDelay="0.00" arrival="219.50" arrivalLane="1_3_2" arrivalPos="186.40" arrivalSpeed="13.00" duration="100.50" routeLength="392.22" waitingTime="57.00" waitingCount="1" stopTime="0.00" timeLoss="69.34" rerouteNo="0" devices="tripinfo_ES_22" vType="cars" speedFactor="0.97" vaporized=""/>
    <personinfo id="person_SW_diag.0" depart="12.21" type="DEFAULT_PEDTYPE" speedFactor="0.87" duration="207.50" waitingTime="0.00" timeLoss="22.87" traveltime="207.50">
        <walk depart="12.50" departPos="100.00" arrival="220.00" arrivalPos="93.20" duration="207.50" routeLength="223.30" timeLoss="22.87" maxSpeed="1.21"/>
    </personinfo>
    <personinfo id="person_NS_w.5" depart="28.81" type="DEFAULT_PEDTYPE" speedFactor="0.91" duration="192.00" waitingTime="0.00" timeLoss="16.33" traveltime="192.00">
        <walk depart="29.00" departPos="100.00" arrival="221.00" arrivalPos="93.20" duration="192.00" routeLength="221.25" timeLoss="16.33" maxSpeed="1.26"/>
    </personinfo>
    <personinfo id="person_NS_w.6" depart="35.57" type="DEFAULT_PEDTYPE" speedFactor="0.95" duration="185.50" waitingTime="0.00" timeLoss="17.43" traveltime="185.50">
        <walk depart="36.00" departPos="100.00" arrival="221.50" arrivalPos="93.20" duration="185.50" routeLength="221.25" timeLoss="17.43" maxSpeed="1.32"/>
    </personinfo>
    <tripinfo id="ES_37" depart="160.00" departLane="4_1_3" departPos="5.10" departSpeed="0.00" departDelay="0.00" arrival="223.00" arrivalLane="1_3_2" arrivalPos="186.40" arrivalSpeed="12.41" duration="63.00" routeLength="392.22" waitingTime="18.00" waitingCount="1" stopTime="0.00" timeLoss="32.46" rerouteNo="0" devices="tripinfo_ES_37" vType="cars" speedFactor="1.11" vaporized=""/>
    <personinfo id="person_ES_diag.1" depart="59.42" type="DEFAULT_PEDTYPE" speedFactor="1.13" duration="165.00" waitingTime="0.00" timeLoss="22.57" traveltime="165.00">
        <walk depart="59.50" departPos="100.00" arrival="224.50" arrivalPos="93.20" duration="165.00" routeLength="223.30" timeLoss="22.57" maxSpeed="1.57"/>
    </personinfo>
    <personinfo id="person_WE_s.1" depart="54.13" type="DEFAULT_PEDTYPE" speedFactor="1.08" duration="172.00" waitingTime="0.00" timeLoss="24.92" traveltime="172.00">
        <walk depart="54.50" departPos="100.00" arrival="226.50" arrivalPos="93.20" duration="172.00" routeLength="221.17" timeLoss="24.92" maxSpeed="1.50"/>
    </personinfo>
    <personinfo id="person_SN_e.1" depart="49.21" type="DEFAULT_PEDTYPE" speedFactor="0.96" duration="177.00" waitingTime="0.00" timeLoss="11.02" traveltime="177.00">
        <walk depart="49.50" departPos="100.00" arrival="226.50" arrivalPos="93.20" duration="177.00" routeLength="221.24" timeLoss="11.02" maxSpeed="1.33"/>
    </personinfo>
    <tripinfo id="EW_7" depart="175.00" departLane="4_1_2" departPos="5.10" departSpeed="0.00" departDelay="0.00" arrival="227.50" arrivalLane="1_2_1" arrivalPos="186.40" arrivalSpeed="12.07" duration="52.50" routeLength="395.15" waitingTime="12.50" waitingCount="1" stopTime="0.00" timeLoss="22.11" rerouteNo="0" devices="tripinfo_EW_7" vType="cars" speedFactor="1.37" vaporized=""/>
    <personinfo id="person_NE_diag.3" depart="40.85" type="DEFAULT_PEDTYPE" speedFactor="1.04" duration="189.00" waitingTime="0.00" timeLoss="31.17" traveltime="189.00">
        <walk depart="41.00" departPos="100.00" arrival="230.00" arrivalPos="93.20" duration="189.00" routeLength="228.50" timeLoss="31.17" maxSpeed="1.45"/>
    </personinfo>
    <personinfo id="person_WN_diag.0" depart="27.30" type="DEFAULT_PEDTYPE" speedFactor="0.93" duration="204.00" waitingTime="0.00" timeLoss="22.87" traveltime="204.00">
        <walk depart="27.50" departPos="100.00" arrival="231.50" arrivalPos="93.20" duration="204.00" routeLength="233.56" timeLoss="22.87" maxSpeed="1.29"/>
    </personinfo>
    <tripinfo id="EW_8" depart="198.00" departLane="4_1_2" departPos="5.10" departSpeed="0.00" departDelay="0.00" arrival="234.00" arrivalLane="1_2_1" arrivalPos="186.40" arrivalSpeed="12.77" duration="36.00" routeLength="395.15" waitingTime="0.00" waitingCount="0" stopTime="0.00" timeLoss="5.30" rerouteNo="0" devices="tripinfo_EW_8" vType="cars" speedFactor="1.01" vaporized=""/>
    <personinfo id="person_SW_diag.1" depart="60.77" type="DEFAULT_PEDTYPE" speedFactor="1.10" duration="175.00" waitingTime="0.00" timeLoss="24.05" traveltime="175.00">
        <walk depart="61.00" departPos="100.00" arrival="236.00" arrivalPos="93.20" duration="175.00" routeLength="231.62" timeLoss="24.05" maxSpeed="1.53"/>
    </personinfo>
    <personinfo id="person_EW_n.1" depart="37.61" type="DEFAULT_PEDTYPE" speedFactor="0.93" duration="202.50" waitingTime="0.00" timeLoss="31.80" traveltime="202.50">
        <walk depart="38.00" departPos="100.00" arrival="240.50" arrivalPos="93.20" duration="202.50" routeLength="221.32" timeLoss="31.80" maxSpeed="1.30"/>
    </personinfo>
    <personinfo id="person_WE_s.3" depart="77.47" type="DEFAULT_PEDTYPE" speedFactor="1.05" duration="166.50" waitingTime="0.00" timeLoss="14.23" traveltime="166.50">
        <walk depart="77.50" departPos="100.00" arrival="244.00" arrivalPos="93.20" duration="166.50" routeLength="221.17" timeLoss="14.23" maxSpeed="1.45"/>
    </personinfo>