<?xml version="1.0" encoding="UTF-8"?>

<!-- generated on 2025-03-05 18:28:02 by Eclipse SUMO GUI Version 1.20.0
<configuration xmlns:xsi="http://www.w3.org/2001/XMLSchema-instance" xsi:noNamespaceSchemaLocation="http://sumo.dlr.de/xsd/sumoConfiguration.xsd">

    <input>
        <net-file value="/home/naderian/Desktop/Shakiba/MMSVCC/environment/network_model/single_intersection_pedestrian_X.net.xml"/>
        <route-files value="/home/naderian/Desktop/Shakiba/MMSVCC/environment/network_model/single_intersection.rou.xml"/>
        <additional-files value="/home/naderian/Desktop/Shakiba/MMSVCC/environment/network_model/single_intersection.add.xml"/>
    </input>

    <output>
        <queue-output value="/home/naderian/Desktop/Shakiba/MMSVCC/environment/simulation_data/single_intersection/queues_multi_scale_symmetric_pene_100.xml"/>
        <tripinfo-output value="/home/naderian/Desktop/Shakiba/MMSVCC/environment/simulation_data/single_intersection/tripinfo_multi_scale_symmetric_pene_100.xml"/>
    </output>

    <time>
        <begin value="0"/>
        <step-length value="0.5"/>
    </time>

    <processing>
        <waiting-time-memory value="1000"/>
    </processing>

    <report>
        <verbose value="true"/>
        <no-step-log value="true"/>
    </report>

    <traci_server>
        <remote-port value="50647"/>
    </traci_server>

    <gui_only>
        <start value="true"/>
    </gui_only>

</configuration>
-->

<tripinfos xmlns:xsi="http://www.w3.org/2001/XMLSchema-instance" xsi:noNamespaceSchemaLocation="http://sumo.dlr.de/xsd/tripinfo_file.xsd">
    <tripinfo id="SN_0" depart="0.00" departLane="3_1_2" departPos="5.10" departSpeed="0.00" departDelay="0.00" arrival="35.00" arrivalLane="1_5_1" arrivalPos="186.40" arrivalSpeed="13.00" duration="35.00" routeLength="395.15" waitingTime="0.00" waitingCount="0" stopTime="0.00" timeLoss="4.21" rerouteNo="0" devices="tripinfo_SN_0" vType="cars" speedFactor="0.97" vaporized=""/>
    <tripinfo id="NS_1" depart="1.00" departLane="5_1_2" departPos="5.10" departSpeed="0.00" departDelay="0.00" arrival="37.00" arrivalLane="1_3_1" arrivalPos="186.40" arrivalSpeed="13.00" duration="36.00" routeLength="395.15" waitingTime="0.00" waitingCount="0" stopTime="0.00" timeLoss="5.41" rerouteNo="0" devices="tripinfo_NS_1" vType="cars" speedFactor="1.11" vaporized=""/>
    <tripinfo id="SN_2" depart="5.00" departLane="3_1_2" departPos="5.10" departSpeed="0.00" departDelay="0.00" arrival="40.50" arrivalLane="1_5_1" arrivalPos="186.40" arrivalSpeed="13.00" duration="35.50" routeLength="395.15" waitingTime="0.00" waitingCount="0" stopTime="0.00" timeLoss="4.90" rerouteNo="0" devices="tripinfo_SN_2" vType="cars" speedFactor="0.86" vaporized=""/>
    <tripinfo id="WE_0" depart="1.00" departLane="2_1_2" departPos="5.10" departSpeed="0.00" departDelay="0.00" arrival="46.00" arrivalLane="1_4_1" arrivalPos="186.40" arrivalSpeed="13.00" duration="45.00" routeLength="395.15" waitingTime="6.50" waitingCount="1" stopTime="0.00" timeLoss="14.55" rerouteNo="0" devices="tripinfo_WE_0" vType="cars" speedFactor="0.91" vaporized=""/>
    <tripinfo id="WE_1" depart="10.00" departLane="2_1_2" departPos="5.10" departSpeed="0.00" departDelay="0.00" arrival="46.00" arrivalLane="1_4_2" arrivalPos="186.40" arrivalSpeed="13.00" duration="36.00" routeLength="395.15" waitingTime="0.00" waitingCount="0" stopTime="0.00" timeLoss="5.42" rerouteNo="0" devices="tripinfo_WE_1" vType="cars" speedFactor="1.06" vaporized=""/>
    <tripinfo id="WS_3" depart="7.00" departLane="2_1_1" departPos="5.10" departSpeed="0.00" departDelay="0.00" arrival="47.00" arrivalLane="1_3_1" arrivalPos="186.40" arrivalSpeed="13.00" duration="40.00" routeLength="379.43" waitingTime="0.00" waitingCount="0" stopTime="0.00" timeLoss="9.85" rerouteNo="0" devices="tripinfo_WS_3" vType="cars" speedFactor="0.95" vaporized=""/>
    <tripinfo id="WE_2" depart="12.50" departLane="2_1_2" departPos="5.10" departSpeed="0.00" departDelay="0.50" arrival="51.50" arrivalLane="1_4_1" arrivalPos="186.40" arrivalSpeed="11.00" duration="39.00" routeLength="395.15" waitingTime="0.00" waitingCount="0" stopTime="0.00" timeLoss="8.60" rerouteNo="0" devices="tripinfo_WE_2" vType="cars" speedFactor="0.94" vaporized=""/>
    <tripinfo id="ES_4" depart="14.00" departLane="4_1_3" departPos="5.10" departSpeed="0.00" departDelay="0.00" arrival="55.00" arrivalLane="1_3_2" arrivalPos="186.40" arrivalSpeed="13.00" duration="41.00" routeLength="392.22" waitingTime="1.50" waitingCount="1" stopTime="0.00" timeLoss="9.83" rerouteNo="0" devices="tripinfo_ES_4" vType="cars" speedFactor="0.97" vaporized=""/>
    <tripinfo id="EW_0" depart="19.00" departLane="4_1_2" departPos="5.10" departSpeed="0.00" departDelay="0.00" arrival="55.00" arrivalLane="1_2_1" arrivalPos="186.40" arrivalSpeed="13.00" duration="36.00" routeLength="395.15" waitingTime="0.00" waitingCount="0" stopTime="0.00" timeLoss="5.17" rerouteNo="0" devices="tripinfo_EW_0" vType="cars" speedFactor="1.05" vaporized=""/>
    <tripinfo id="EW_1" depart="21.50" departLane="4_1_2" departPos="5.10" departSpeed="0.00" departDelay="0.50" arrival="57.50" arrivalLane="1_2_1" arrivalPos="186.40" arrivalSpeed="13.00" duration="36.00" routeLength="395.15" waitingTime="0.00" waitingCount="0" stopTime="0.00" timeLoss="5.43" rerouteNo="0" devices="tripinfo_EW_1" vType="cars" speedFactor="1.01" vaporized=""/>
    <tripinfo id="ES_6" depart="31.00" departLane="4_1_3" departPos="5.10" departSpeed="0.00" departDelay="0.00" arrival="67.00" arrivalLane="1_3_2" arrivalPos="186.40" arrivalSpeed="13.00" duration="36.00" routeLength="392.22" waitingTime="0.00" waitingCount="0" stopTime="0.00" timeLoss="5.41" rerouteNo="0" devices="tripinfo_ES_6" vType="cars" speedFactor="1.07" vaporized=""/>
    <tripinfo id="NS_5" depart="22.00" departLane="5_1_2" departPos="5.10" departSpeed="0.00" departDelay="0.00" arrival="72.00" arrivalLane="1_3_1" arrivalPos="186.40" arrivalSpeed="13.00" duration="50.00" routeLength="395.15" waitingTime="7.50" waitingCount="1" stopTime="0.00" timeLoss="19.55" rerouteNo="0" devices="tripinfo_NS_5" vType="cars" speedFactor="1.01" vaporized=""/>
    <tripinfo id="NW_7" depart="37.00" departLane="5_1_1" departPos="5.10" departSpeed="0.00" departDelay="0.00" arrival="73.00" arrivalLane="1_2_1" arrivalPos="186.40" arrivalSpeed="13.00" duration="36.00" routeLength="379.43" waitingTime="0.00" waitingCount="0" stopTime="0.00" timeLoss="6.30" rerouteNo="0" devices="tripinfo_NW_7" vType="cars" speedFactor="1.13" vaporized=""/>
    <tripinfo id="NW_9" depart="41.00" departLane="5_1_1" departPos="5.10" departSpeed="0.00" departDelay="0.00" arrival="78.00" arrivalLane="1_2_1" arrivalPos="186.40" arrivalSpeed="13.00" duration="37.00" routeLength="379.43" waitingTime="0.00" waitingCount="0" stopTime="0.00" timeLoss="6.83" rerouteNo="0" devices="tripinfo_NW_9" vType="cars" speedFactor="0.91" vaporized=""/>
    <tripinfo id="SN_10" depart="48.00" departLane="3_1_2" departPos="5.10" departSpeed="0.00" departDelay="0.00" arrival="83.50" arrivalLane="1_5_1" arrivalPos="186.40" arrivalSpeed="13.00" duration="35.50" routeLength="395.15" waitingTime="0.00" waitingCount="0" stopTime="0.00" timeLoss="4.78" rerouteNo="0" devices="tripinfo_SN_10" vType="cars" speedFactor="1.02" vaporized=""/>
    <tripinfo id="WE_3" depart="43.00" departLane="2_1_2" departPos="5.10" departSpeed="0.00" departDelay="0.00" arrival="90.00" arrivalLane="1_4_1" arrivalPos="186.40" arrivalSpeed="13.00" duration="47.00" routeLength="395.15" waitingTime="7.50" waitingCount="1" stopTime="0.00" timeLoss="16.55" rerouteNo="0" devices="tripinfo_WE_3" vType="cars" speedFactor="1.05" vaporized=""/>
    <tripinfo id="EW_2" depart="46.00" departLane="4_1_2" departPos="5.10" departSpeed="0.00" departDelay="0.00" arrival="90.00" arrivalLane="1_2_1" arrivalPos="186.40" arrivalSpeed="13.00" duration="44.00" routeLength="395.15" waitingTime="1.00" waitingCount="1" stopTime="0.00" timeLoss="13.55" rerouteNo="0" devices="tripinfo_EW_2" vType="cars" speedFactor="1.05" vaporized=""/>
    <tripinfo id="WE_4" depart="67.00" departLane="2_1_2" departPos="5.10" departSpeed="0.00" departDelay="0.00" arrival="102.50" arrivalLane="1_4_1" arrivalPos="186.40" arrivalSpeed="13.00" duration="35.50" routeLength="395.15" waitingTime="0.00" waitingCount="0" stopTime="0.00" timeLoss="4.71" rerouteNo="0" devices="tripinfo_WE_4" vType="cars" speedFactor="0.96" vaporized=""/>
    <tripinfo id="EW_3" depart="68.00" departLane="4_1_2" departPos="5.10" departSpeed="0.00" departDelay="0.00" arrival="106.00" arrivalLane="1_2_1" arrivalPos="186.40" arrivalSpeed="11.00" duration="38.00" routeLength="395.15" waitingTime="0.00" waitingCount="0" stopTime="0.00" timeLoss="7.20" rerouteNo="0" devices="tripinfo_EW_3" vType="cars" speedFactor="0.98" vaporized=""/>
    <tripinfo id="SN_11" depart="70.00" departLane="3_1_2" departPos="5.10" departSpeed="0.00" departDelay="0.00" arrival="107.50" arrivalLane="1_5_1" arrivalPos="186.40" arrivalSpeed="13.00" duration="37.50" routeLength="395.15" waitingTime="0.00" waitingCount="0" stopTime="0.00" timeLoss="6.95" rerouteNo="0" devices="tripinfo_SN_11" vType="cars" speedFactor="1.02" vaporized=""/>
    <tripinfo id="SW_8" depart="40.00" departLane="3_1_3" departPos="5.10" departSpeed="0.00" departDelay="0.00" arrival="109.00" arrivalLane="1_2_2" arrivalPos="186.40" arrivalSpeed="13.00" duration="69.00" routeLength="392.22" waitingTime="29.50" waitingCount="1" stopTime="0.00" timeLoss="37.53" rerouteNo="0" devices="tripinfo_SW_8" vType="cars" speedFactor="0.85" vaporized=""/>
    <tripinfo id="NS_12" depart="80.00" departLane="5_1_2" departPos="5.10" departSpeed="0.00" departDelay="0.00" arrival="151.00" arrivalLane="1_3_1" arrivalPos="186.40" arrivalSpeed="13.00" duration="71.00" routeLength="395.15" waitingTime="30.00" waitingCount="1" stopTime="0.00" timeLoss="40.55" rerouteNo="0" devices="tripinfo_NS_12" vType="cars" speedFactor="1.07" vaporized=""/>
    <tripinfo id="NS_15" depart="92.00" departLane="5_1_2" departPos="5.10" departSpeed="0.00" departDelay="0.00" arrival="151.00" arrivalLane="1_3_2" arrivalPos="186.40" arrivalSpeed="13.00" duration="59.00" routeLength="395.15" waitingTime="14.50" waitingCount="1" stopTime="0.00" timeLoss="28.55" rerouteNo="0" devices="tripinfo_NS_15" vType="cars" speedFactor="1.01" vaporized=""/>
    <tripinfo id="SN_16" depart="93.00" departLane="3_1_2" departPos="5.10" departSpeed="0.00" departDelay="0.00" arrival="151.00" arrivalLane="1_5_1" arrivalPos="186.40" arrivalSpeed="13.00" duration="58.00" routeLength="395.15" waitingTime="19.50" waitingCount="1" stopTime="0.00" timeLoss="27.55" rerouteNo="0" devices="tripinfo_SN_16" vType="cars" speedFactor="0.91" vaporized=""/>
    <tripinfo id="NS_18" depart="99.00" departLane="5_1_2" departPos="5.10" departSpeed="0.00" departDelay="0.00" arrival="152.50" arrivalLane="1_3_1" arrivalPos="186.40" arrivalSpeed="13.00" duration="53.50" routeLength="395.15" waitingTime="8.00" waitingCount="5" stopTime="0.00" timeLoss="23.09" rerouteNo="0" devices="tripinfo_NS_18" vType="cars" speedFactor="0.84" vaporized=""/>
    <tripinfo id="SN_20" depart="109.00" departLane="3_1_2" departPos="5.10" departSpeed="0.00" departDelay="0.00" arrival="152.50" arrivalLane="1_5_2" arrivalPos="186.40" arrivalSpeed="13.00" duration="43.50" routeLength="395.15" waitingTime="0.00" waitingCount="0" stopTime="0.00" timeLoss="13.05" rerouteNo="0" devices="tripinfo_SN_20" vType="cars" speedFactor="0.89" vaporized=""/>
    <tripinfo id="SN_14" depart="90.00" departLane="3_1_2" departPos="5.10" departSpeed="0.00" departDelay="0.00" arrival="158.00" arrivalLane="1_5_1" arrivalPos="186.40" arrivalSpeed="13.00" duration="68.00" routeLength="395.15" waitingTime="24.00" waitingCount="2" stopTime="0.00" timeLoss="37.22" rerouteNo="0" devices="tripinfo_SN_14" vType="cars" speedFactor="1.05" vaporized=""/>
    <tripinfo id="WE_5" depart="86.00" departLane="2_1_2" departPos="5.10" departSpeed="0.00" departDelay="0.00" arrival="159.00" arrivalLane="1_4_1" arrivalPos="186.40" arrivalSpeed="13.00" duration="73.00" routeLength="395.15" waitingTime="32.50" waitingCount="1" stopTime="0.00" timeLoss="42.55" rerouteNo="0" devices="tripinfo_WE_5" vType="cars" speedFactor="0.99" vaporized=""/>
    <tripinfo id="WE_6" depart="88.00" departLane="2_1_2" departPos="5.10" departSpeed="0.00" departDelay="1.00" arrival="159.00" arrivalLane="1_4_2" arrivalPos="186.40" arrivalSpeed="13.00" duration="71.00" routeLength="395.15" waitingTime="32.00" waitingCount="1" stopTime="0.00" timeLoss="40.55" rerouteNo="0" devices="tripinfo_WE_6" vType="cars" speedFactor="0.93" vaporized=""/>
    <tripinfo id="EW_4" depart="123.00" departLane="4_1_2" departPos="5.10" departSpeed="0.00" departDelay="0.00" arrival="160.50" arrivalLane="1_2_2" arrivalPos="186.40" arrivalSpeed="13.00" duration="37.50" routeLength="395.15" waitingTime="0.00" waitingCount="0" stopTime="0.00" timeLoss="6.71" rerouteNo="0" devices="tripinfo_EW_4" vType="cars" speedFactor="1.11" vaporized=""/>
    <tripinfo id="EN_21" depart="111.00" departLane="4_1_1" departPos="5.10" departSpeed="0.00" departDelay="0.00" arrival="161.00" arrivalLane="1_5_1" arrivalPos="186.40" arrivalSpeed="13.00" duration="50.00" routeLength="379.42" waitingTime="8.00" waitingCount="2" stopTime="0.00" timeLoss="19.78" rerouteNo="0" devices="tripinfo_EN_21" vType="cars" speedFactor="1.00" vaporized=""/>
    <tripinfo id="WE_7" depart="125.00" departLane="2_1_2" departPos="5.10" departSpeed="0.00" departDelay="0.00" arrival="162.50" arrivalLane="1_4_1" arrivalPos="186.40" arrivalSpeed="13.00" duration="37.50" routeLength="395.15" waitingTime="0.00" waitingCount="0" stopTime="0.00" timeLoss="6.88" rerouteNo="0" devices="tripinfo_WE_7" vType="cars" speedFactor="1.02" vaporized=""/>
    <tripinfo id="WS_23" depart="125.00" departLane="2_1_1" departPos="5.10" departSpeed="0.00" departDelay="0.00" arrival="163.00" arrivalLane="1_3_1" arrivalPos="186.40" arrivalSpeed="13.00" duration="38.00" routeLength="379.43" waitingTime="0.00" waitingCount="0" stopTime="0.00" timeLoss="7.84" rerouteNo="0" devices="tripinfo_WS_23" vType="cars" speedFactor="1.02" vaporized=""/>
    <tripinfo id="EW_5" depart="126.00" departLane="4_1_2" departPos="5.10" departSpeed="0.00" departDelay="1.00" arrival="164.00" arrivalLane="1_2_1" arrivalPos="186.40" arrivalSpeed="13.00" duration="38.00" routeLength="395.15" waitingTime="0.00" waitingCount="0" stopTime="0.00" timeLoss="7.37" rerouteNo="0" devices="tripinfo_EW_5" vType="cars" speedFactor="1.09" vaporized=""/>
    <tripinfo id="WE_8" depart="134.00" departLane="2_1_2" departPos="5.10" departSpeed="0.00" departDelay="0.00" arrival="170.50" arrivalLane="1_4_1" arrivalPos="186.40" arrivalSpeed="13.00" duration="36.50" routeLength="395.15" waitingTime="0.00" waitingCount="0" stopTime="0.00" timeLoss="5.84" rerouteNo="0" devices="tripinfo_WE_8" vType="cars" speedFactor="1.01" vaporized=""/>
    <tripinfo id="EN_29" depart="137.00" departLane="4_1_1" departPos="5.10" departSpeed="0.00" departDelay="0.00" arrival="174.00" arrivalLane="1_5_1" arrivalPos="186.40" arrivalSpeed="11.00" duration="37.00" routeLength="379.42" waitingTime="0.00" waitingCount="0" stopTime="0.00" timeLoss="7.29" rerouteNo="0" devices="tripinfo_EN_29" vType="cars" speedFactor="1.15" vaporized=""/>
    <tripinfo id="EW_6" depart="137.00" departLane="4_1_2" departPos="5.10" departSpeed="0.00" departDelay="0.00" arrival="175.00" arrivalLane="1_2_1" arrivalPos="186.40" arrivalSpeed="11.00" duration="38.00" routeLength="395.15" waitingTime="0.00" waitingCount="0" stopTime="0.00" timeLoss="7.33" rerouteNo="0" devices="tripinfo_EW_6" vType="cars" speedFactor="1.08" vaporized=""/>
    <tripinfo id="SE_19" depart="100.00" departLane="3_1_1" departPos="5.10" departSpeed="0.00" departDelay="0.00" arrival="176.50" arrivalLane="1_4_1" arrivalPos="186.40" arrivalSpeed="13.00" duration="76.50" routeLength="379.42" waitingTime="25.50" waitingCount="5" stopTime="0.00" timeLoss="46.26" rerouteNo="0" devices="tripinfo_SE_19" vType="cars" speedFactor="0.92" vaporized=""/>
    <tripinfo id="NS_24" depart="125.00" departLane="5_1_2" departPos="5.10" departSpeed="0.00" departDelay="0.00" arrival="177.00" arrivalLane="1_3_1" arrivalPos="186.40" arrivalSpeed="13.00" duration="52.00" routeLength="395.15" waitingTime="12.00" waitingCount="1" stopTime="0.00" timeLoss="21.55" rerouteNo="0" devices="tripinfo_NS_24" vType="cars" speedFactor="1.22" vaporized=""/>
    <tripinfo id="SN_25" depart="126.00" departLane="3_1_2" departPos="5.10" departSpeed="0.00" departDelay="0.00" arrival="177.00" arrivalLane="1_5_1" arrivalPos="186.40" arrivalSpeed="13.00" duration="51.00" routeLength="395.15" waitingTime="11.00" waitingCount="1" stopTime="0.00" timeLoss="20.55" rerouteNo="0" devices="tripinfo_SN_25" vType="cars" speedFactor="0.91" vaporized=""/>
    <tripinfo id="NS_26" depart="130.00" departLane="5_1_2" departPos="5.10" departSpeed="0.00" departDelay="0.00" arrival="177.00" arrivalLane="1_3_2" arrivalPos="186.40" arrivalSpeed="13.00" duration="47.00" routeLength="395.15" waitingTime="3.50" waitingCount="1" stopTime="0.00" timeLoss="16.55" rerouteNo="0" devices="tripinfo_NS_26" vType="cars" speedFactor="1.04" vaporized=""/>
    <tripinfo id="SN_27" depart="130.00" departLane="3_1_2" departPos="5.10" departSpeed="0.00" departDelay="0.00" arrival="178.50" arrivalLane="1_5_1" arrivalPos="186.40" arrivalSpeed="13.00" duration="48.50" routeLength="395.15" waitingTime="3.00" waitingCount="2" stopTime="0.00" timeLoss="17.90" rerouteNo="0" devices="tripinfo_SN_27" vType="cars" speedFactor="1.11" vaporized=""/>
    <tripinfo id="NS_30" depart="138.00" departLane="5_1_2" departPos="5.10" departSpeed="0.00" departDelay="0.00" arrival="178.50" arrivalLane="1_3_1" arrivalPos="186.40" arrivalSpeed="13.00" duration="40.50" routeLength="395.15" waitingTime="0.00" waitingCount="0" stopTime="0.00" timeLoss="10.09" rerouteNo="0" devices="tripinfo_NS_30" vType="cars" speedFactor="1.01" vaporized=""/>
    <tripinfo id="NS_31" depart="141.00" departLane="5_1_2" departPos="5.10" departSpeed="0.00" departDelay="2.00" arrival="178.50" arrivalLane="1_3_2" arrivalPos="186.40" arrivalSpeed="13.00" duration="37.50" routeLength="395.15" waitingTime="0.00" waitingCount="0" stopTime="0.00" timeLoss="7.11" rerouteNo="0" devices="tripinfo_NS_31" vType="cars" speedFactor="1.01" vaporized=""/>
    <personinfo id="person_NS_w.1" depart="10.87" type="DEFAULT_PEDTYPE" speedFactor="1.12" duration="170.00" waitingTime="0.00" timeLoss="27.68" traveltime="170.00">
        <walk depart="11.00" departPos="100.00" arrival="181.00" arrivalPos="93.20" duration="170.00" routeLength="221.25" timeLoss="27.68" maxSpeed="1.55"/>
    </personinfo>
    <personinfo id="person_EW_n.0" depart="20.64" type="DEFAULT_PEDTYPE" speedFactor="1.09" duration="164.00" waitingTime="0.00" timeLoss="18.06" traveltime="164.00">
        <walk depart="21.00" departPos="100.00" arrival="185.00" arrivalPos="93.20" duration="164.00" routeLength="221.32" timeLoss="18.06" maxSpeed="1.52"/>
    </personinfo>
    <personinfo id="person_NS_w.2" depart="10.90" type="DEFAULT_PEDTYPE" speedFactor="1.00" duration="180.00" waitingTime="0.00" timeLoss="20.37" traveltime="180.00">
        <walk depart="11.00" departPos="100.00" arrival="191.00" arrivalPos="93.20" duration="180.00" routeLength="221.25" timeLoss="20.37" maxSpeed="1.39"/>
    </personinfo>
    <personinfo id="person_NS_w.0" depart="3.48" type="DEFAULT_PEDTYPE" speedFactor="1.00" duration="188.00" waitingTime="0.00" timeLoss="28.22" traveltime="188.00">
        <walk depart="3.50" departPos="100.00" arrival="191.50" arrivalPos="93.20" duration="188.00" routeLength="221.25" timeLoss="28.22" maxSpeed="1.38"/>
    </personinfo>
    <personinfo id="person_WE_s.0" depart="1.92" type="DEFAULT_PEDTYPE" speedFactor="0.98" duration="191.00" waitingTime="0.00" timeLoss="27.71" traveltime="191.00">
        <walk depart="2.00" departPos="100.00" arrival="193.00" arrivalPos="93.20" duration="191.00" routeLength="221.17" timeLoss="27.71" maxSpeed="1.35"/>
    </personinfo>
    <personinfo id="person_NS_w.3" depart="12.93" type="DEFAULT_PEDTYPE" speedFactor="0.99" duration="180.50" waitingTime="0.00" timeLoss="19.11" traveltime="180.50">
        <walk depart="13.00" departPos="100.00" arrival="193.50" arrivalPos="93.20" duration="180.50" routeLength="221.25" timeLoss="19.11" maxSpeed="1.37"/>
    </personinfo>
    <personinfo id="person_NS_w.4" depart="22.10" type="DEFAULT_PEDTYPE" speedFactor="0.96" duration="174.00" waitingTime="0.00" timeLoss="8.01" traveltime="174.00">
        <walk depart="22.50" departPos="100.00" arrival="196.50" arrivalPos="93.20" duration="174.00" routeLength="221.25" timeLoss="8.01" maxSpeed="1.33"/>
    </personinfo>
    <personinfo id="person_SN_e.0" depart="16.32" type="DEFAULT_PEDTYPE" speedFactor="0.96" duration="181.50" waitingTime="0.00" timeLoss="15.83" traveltime="181.50">
        <walk depart="16.50" departPos="100.00" arrival="198.00" arrivalPos="93.20" duration="181.50" routeLength="221.24" timeLoss="15.83" maxSpeed="1.34"/>
    </personinfo>
    <personinfo id="person_NE_diag.0" depart="4.87" type="DEFAULT_PEDTYPE" speedFactor="0.99" duration="194.00" waitingTime="0.00" timeLoss="36.36" traveltime="194.00">
        <walk depart="5.00" departPos="100.00" arrival="199.00" arrivalPos="93.20" duration="194.00" routeLength="216.12" timeLoss="36.36" maxSpeed="1.37"/>
    </personinfo>
    <personinfo id="person_ES_diag.0" depart="51.35" type="DEFAULT_PEDTYPE" speedFactor="1.15" duration="151.50" waitingTime="0.00" timeLoss="16.85" traveltime="151.50">
        <walk depart="51.50" departPos="100.00" arrival="203.00" arrivalPos="93.20" duration="151.50" routeLength="215.71" timeLoss="16.85" maxSpeed="1.60"/>
    </personinfo>
    <personinfo id="person_NE_diag.3" depart="40.85" type="DEFAULT_PEDTYPE" speedFactor="1.04" duration="169.00" waitingTime="0.00" timeLoss="19.72" traveltime="169.00">
        <walk depart="41.00" departPos="100.00" arrival="210.00" arrivalPos="93.20" duration="169.00" routeLength="216.12" timeLoss="19.72" maxSpeed="1.45"/>
    </personinfo>
    <personinfo id="person_SW_diag.0" depart="12.21" type="DEFAULT_PEDTYPE" speedFactor="0.87" duration="199.50" waitingTime="0.00" timeLoss="20.69" traveltime="199.50">
        <walk depart="12.50" departPos="100.00" arrival="212.00" arrivalPos="93.20" duration="199.50" routeLength="216.26" timeLoss="20.69" maxSpeed="1.21"/>
    </personinfo>
    <personinfo id="person_WN_diag.0" depart="27.30" type="DEFAULT_PEDTYPE" speedFactor="0.93" duration="185.50" waitingTime="0.00" timeLoss="18.32" traveltime="185.50">
        <walk depart="27.50" departPos="100.00" arrival="213.00" arrivalPos="93.20" duration="185.50" routeLength="215.58" timeLoss="18.32" maxSpeed="1.29"/>
    </personinfo>
    <personinfo id="person_NS_w.5" depart="28.81" type="DEFAULT_PEDTYPE" speedFactor="0.91" duration="186.00" waitingTime="0.00" timeLoss="10.33" traveltime="186.00">
        <walk depart="29.00" departPos="100.00" arrival="215.00" arrivalPos="93.20" duration="186.00" routeLength="221.25" timeLoss="10.33" maxSpeed="1.26"/>
    </personinfo>
    <tripinfo id="WE_9" depart="175.00" departLane="2_1_2" departPos="5.10" departSpeed="0.00" departDelay="0.00" arrival="220.00" arrivalLane="1_4_1" arrivalPos="186.40" arrivalSpeed="13.00" duration="45.00" routeLength="395.15" waitingTime="4.50" waitingCount="1" stopTime="0.00" timeLoss="14.55" rerouteNo="0" devices="tripinfo_WE_9" vType="cars" speedFactor="1.08" vaporized=""/>
    <tripinfo id="WE_10" depart="177.50" departLane="2_1_2" departPos="5.10" departSpeed="0.00" departDelay="0.50" arrival="220.00" arrivalLane="1_4_2" arrivalPos="186.40" arrivalSpeed="13.00" duration="42.50" routeLength="395.15" waitingTime="0.00" waitingCount="0" stopTime="0.00" timeLoss="11.95" rerouteNo="0" devices="tripinfo_WE_10" vType="cars" speedFactor="1.14" vaporized=""/>
    <tripinfo id="WN_13" depart="85.00" departLane="2_1_3" departPos="5.10" departSpeed="0.00" departDelay="0.00" arrival="221.00" arrivalLane="1_5_2" arrivalPos="186.40" arrivalSpeed="13.00" duration="136.00" routeLength="392.22" waitingTime="95.00" waitingCount="1" stopTime="0.00" timeLoss="104.89" rerouteNo="0" devices="tripinfo_WN_13" vType="cars" speedFactor="0.99" vaporized=""/>
    <tripinfo id="WE_11" depart="187.00" departLane="2_1_2" departPos="5.10" departSpeed="0.00" departDelay="0.00" arrival="222.50" arrivalLane="1_4_1" arrivalPos="186.40" arrivalSpeed="13.00" duration="35.50" routeLength="395.15" waitingTime="0.00" waitingCount="0" stopTime="0.00" timeLoss="4.68" rerouteNo="0" devices="tripinfo_WE_11" vType="cars" speedFactor="0.96" vaporized=""/>
    <tripinfo id="WN_36" depart="158.00" departLane="2_1_3" departPos="5.10" departSpeed="0.00" departDelay="0.00" arrival="223.00" arrivalLane="1_5_2" arrivalPos="186.40" arrivalSpeed="13.00" duration="65.00" routeLength="392.22" waitingTime="18.50" waitingCount="1" stopTime="0.00" timeLoss="33.96" rerouteNo="0" devices="tripinfo_WN_36" vType="cars" speedFactor="1.03" vaporized=""/>
    <tripinfo id="NW_33" depart="147.00" departLane="5_1_1" departPos="5.10" departSpeed="0.00" departDelay="0.00" arrival="224.50" arrivalLane="1_2_1" arrivalPos="186.40" arrivalSpeed="13.00" duration="77.50" routeLength="379.43" waitingTime="34.50" waitingCount="2" stopTime="0.00" timeLoss="47.01" rerouteNo="0" devices="tripinfo_NW_33" vType="cars" speedFactor="0.83" vaporized=""/>
    <tripinfo id="NS_38" depart="163.00" departLane="5_1_2" departPos="5.10" departSpeed="0.00" departDelay="0.00" arrival="227.50" arrivalLane="1_3_1" arrivalPos="186.40" arrivalSpeed="13.00" duration="64.50" routeLength="395.15" waitingTime="8.50" waitingCount="6" stopTime="0.00" timeLoss="34.10" rerouteNo="0" devices="tripinfo_NS_38" vType="cars" speedFactor="0.93" vaporized=""/>
    <tripinfo id="NS_32" depart="147.00" departLane="5_1_2" departPos="5.10" departSpeed="0.00" departDelay="0.00" arrival="228.00" arrivalLane="1_3_2" arrivalPos="186.40" arrivalSpeed="13.00" duration="81.00" routeLength="395.15" waitingTime="40.00" waitingCount="1" stopTime="0.00" timeLoss="50.55" rerouteNo="0" devices="tripinfo_NS_32" vType="cars" speedFactor="1.00" vaporized=""/>
    <tripinfo id="NE_39" depart="177.00" departLane="5_1_3" departPos="5.10" departSpeed="0.00" departDelay="0.00" arrival="229.00" arrivalLane="1_4_2" arrivalPos="186.40" arrivalSpeed="13.00" duration="52.00" routeLength="392.22" waitingTime="11.50" waitingCount="1" stopTime="0.00" timeLoss="20.89" rerouteNo="0" devices="tripinfo_NE_39" vType="cars" speedFactor="0.99" vaporized=""/>
    <tripinfo id="NS_34" depart="152.00" departLane="5_1_2" departPos="5.10" departSpeed="0.00" departDelay="0.00" arrival="229.50" arrivalLane="1_3_1" arrivalPos="186.40" arrivalSpeed="13.00" duration="77.50" routeLength="395.15" waitingTime="30.50" waitingCount="1" stopTime="0.00" timeLoss="46.96" rerouteNo="0" devices="tripinfo_NS_34" vType="cars" speedFactor="0.85" vaporized=""/>
    <tripinfo id="NE_41" depart="192.00" departLane="5_1_3" departPos="5.10" departSpeed="0.00" departDelay="0.00" arrival="230.50" arrivalLane="1_4_2" arrivalPos="186.40" arrivalSpeed="13.00" duration="38.50" routeLength="392.22" waitingTime="0.00" waitingCount="0" stopTime="0.00" timeLoss="7.90" rerouteNo="0" devices="tripinfo_NE_41" vType="cars" speedFactor="1.04" vaporized=""/>
    <tripinfo id="SN_42" depart="196.00" departLane="3_1_2" departPos="5.10" departSpeed="0.00" departDelay="0.00" arrival="235.50" arrivalLane="1_5_2" arrivalPos="186.40" arrivalSpeed="13.00" duration="39.50" routeLength="395.15" waitingTime="0.00" waitingCount="0" stopTime="0.00" timeLoss="8.99" rerouteNo="0" devices="tripinfo_SN_42" vType="cars" speedFactor="1.04" vaporized=""/>
    <tripinfo id="SN_35" depart="156.00" departLane="3_1_2" departPos="5.10" departSpeed="0.00" departDelay="0.00" arrival="236.00" arrivalLane="1_5_1" arrivalPos="186.40" arrivalSpeed="13.00" duration="80.00" routeLength="395.15" waitingTime="40.50" waitingCount="1" stopTime="0.00" timeLoss="49.55" rerouteNo="0" devices="tripinfo_SN_35" vType="cars" speedFactor="1.06" vaporized=""/>
    <personinfo id="person_NE_diag.1" depart="29.37" type="DEFAULT_PEDTYPE" speedFactor="0.84" duration="207.00" waitingTime="0.00" timeLoss="21.31" traveltime="207.00">
        <walk depart="29.50" departPos="100.00" arrival="236.50" arrivalPos="93.20" duration="207.00" routeLength="216.12" timeLoss="21.31" maxSpeed="1.16"/>
    </personinfo>
    <tripinfo id="SW_17" depart="93.00" departLane="3_1_3" departPos="5.10" departSpeed="0.00" departDelay="0.00" arrival="236.50" arrivalLane="1_2_2" arrivalPos="186.40" arrivalSpeed="13.00" duration="143.50" routeLength="392.22" waitingTime="104.50" waitingCount="1" stopTime="0.00" timeLoss="112.47" rerouteNo="0" devices="tripinfo_SW_17" vType="cars" speedFactor="0.83" vaporized=""/>
    <tripinfo id="NS_40" depart="188.00" departLane="5_1_2" departPos="5.10" departSpeed="0.00" departDelay="0.00" arrival="237.00" arrivalLane="1_3_1" arrivalPos="186.40" arrivalSpeed="9.40" duration="49.00" routeLength="395.15" waitingTime="0.00" waitingCount="0" stopTime="0.00" timeLoss="18.60" rerouteNo="0" devices="tripinfo_NS_40" vType="cars" speedFactor="1.05" vaporized=""/>
    <tripinfo id="SN_44" depart="199.00" departLane="3_1_2" departPos="5.10" departSpeed="0.00" departDelay="1.00" arrival="237.50" arrivalLane="1_5_1" arrivalPos="186.40" arrivalSpeed="13.00" duration="38.50" routeLength="395.15" waitingTime="0.00" waitingCount="0" stopTime="0.00" timeLoss="7.81" rerouteNo="0" devices="tripinfo_SN_44" vType="cars" speedFactor="1.00" vaporized=""/>